[Molden Format]
[Atoms] (Angs)
  C      1    6      6.18553020     -1.28241905      0.00000000
  C      2    6      5.29497003     -0.18810919      0.00000000
  C      3    6      5.84583983      1.11209090     -0.00000000
  C      4    6      7.22950980      1.30330111     -0.00000000
  C      5    6      8.10046997      0.20359524     -0.00000000
  C      6    6      7.57107017     -1.09248884      0.00000000
  C      7    6      3.85364007     -0.45625941      0.00000000
  C      8    6      2.85626993      0.46605144     -0.00000000
  C      9    6      1.41812997      0.19572222     -0.00000000
  C     10    6      0.51960280      1.28635008     -0.00000000
  C     11    6     -0.86138817      1.10148987     -0.00000000
  C     12    6     -1.41812997     -0.19572222      0.00000000
  C     13    6     -0.51960280     -1.28635008      0.00000000
  C     14    6      0.86138817     -1.10148987      0.00000000
  C     15    6     -2.85626993     -0.46605144      0.00000000
  C     16    6     -3.85364007      0.45625941     -0.00000000
  C     17    6     -5.29497003      0.18810919     -0.00000000
  C     18    6     -6.18553020      1.28241905     -0.00000000
  C     19    6     -7.57107017      1.09248884     -0.00000000
  C     20    6     -8.10046997     -0.20359524      0.00000000
  C     21    6     -7.22950980     -1.30330111      0.00000000
  C     22    6     -5.84583983     -1.11209090      0.00000000
  H     23    1      9.18584994      0.35850041     -0.00000000
  H     24    1      3.58596023     -1.52209945      0.00000000
  H     25    1      3.12269976      1.53216048     -0.00000000
  H     26    1     -1.51250030      1.98309977     -0.00000000
  H     27    1      5.18886969      1.98906080     -0.00000000
  H     28    1      0.92328565      2.30726014     -0.00000000
  H     29    1      7.63452964      2.32241117     -0.00000000
  H     30    1      1.51250030     -1.98309977      0.00000000
  H     31    1      8.24011030     -1.96123873      0.00000000
  H     32    1     -0.92328565     -2.30726014      0.00000000
  H     33    1      5.77794035     -2.30147911      0.00000000
  H     34    1     -3.12269976     -1.53216048      0.00000000
  H     35    1     -3.58596023      1.52209945     -0.00000000
  H     36    1     -5.77794035      2.30147911     -0.00000000
  H     37    1     -8.24011030      1.96123873     -0.00000000
  H     38    1     -9.18584994     -0.35850041      0.00000000
  H     39    1     -7.63452964     -2.32241117      0.00000000
  H     40    1     -5.18886969     -1.98906080      0.00000000
[GTO]
1    0
S    5    1.000000
   1.23840169E+03    5.45688000E-03 
   1.86290050E+02    4.06384100E-02 
   4.22511764E+01    1.80255940E-01 
   1.16765579E+01    4.63151220E-01 
   3.59305065E+00    4.40871730E-01 
S    1    1.000000
   4.02451470E-01    1.00000000E+00 
S    1    1.000000
   1.30901830E-01    1.00000000E+00 
P    3    1.000000
   9.46809706E+00    3.83878700E-02 
   2.01035451E+00    2.11170250E-01 
   5.47710050E-01    5.13281720E-01 
P    1    1.000000
   1.52686140E-01    1.00000000E+00 
D    1    1.000000
   8.00000000E-01    1.00000000E+00 

2    0
S    5    1.000000
   1.23840169E+03    5.45688000E-03 
   1.86290050E+02    4.06384100E-02 
   4.22511764E+01    1.80255940E-01 
   1.16765579E+01    4.63151220E-01 
   3.59305065E+00    4.40871730E-01 
S    1    1.000000
   4.02451470E-01    1.00000000E+00 
S    1    1.000000
   1.30901830E-01    1.00000000E+00 
P    3    1.000000
   9.46809706E+00    3.83878700E-02 
   2.01035451E+00    2.11170250E-01 
   5.47710050E-01    5.13281720E-01 
P    1    1.000000
   1.52686140E-01    1.00000000E+00 
D    1    1.000000
   8.00000000E-01    1.00000000E+00 

3    0
S    5    1.000000
   1.23840169E+03    5.45688000E-03 
   1.86290050E+02    4.06384100E-02 
   4.22511764E+01    1.80255940E-01 
   1.16765579E+01    4.63151220E-01 
   3.59305065E+00    4.40871730E-01 
S    1    1.000000
   4.02451470E-01    1.00000000E+00 
S    1    1.000000
   1.30901830E-01    1.00000000E+00 
P    3    1.000000
   9.46809706E+00    3.83878700E-02 
   2.01035451E+00    2.11170250E-01 
   5.47710050E-01    5.13281720E-01 
P    1    1.000000
   1.52686140E-01    1.00000000E+00 
D    1    1.000000
   8.00000000E-01    1.00000000E+00 

4    0
S    5    1.000000
   1.23840169E+03    5.45688000E-03 
   1.86290050E+02    4.06384100E-02 
   4.22511764E+01    1.80255940E-01 
   1.16765579E+01    4.63151220E-01 
   3.59305065E+00    4.40871730E-01 
S    1    1.000000
   4.02451470E-01    1.00000000E+00 
S    1    1.000000
   1.30901830E-01    1.00000000E+00 
P    3    1.000000
   9.46809706E+00    3.83878700E-02 
   2.01035451E+00    2.11170250E-01 
   5.47710050E-01    5.13281720E-01 
P    1    1.000000
   1.52686140E-01    1.00000000E+00 
D    1    1.000000
   8.00000000E-01    1.00000000E+00 

5    0
S    5    1.000000
   1.23840169E+03    5.45688000E-03 
   1.86290050E+02    4.06384100E-02 
   4.22511764E+01    1.80255940E-01 
   1.16765579E+01    4.63151220E-01 
   3.59305065E+00    4.40871730E-01 
S    1    1.000000
   4.02451470E-01    1.00000000E+00 
S    1    1.000000
   1.30901830E-01    1.00000000E+00 
P    3    1.000000
   9.46809706E+00    3.83878700E-02 
   2.01035451E+00    2.11170250E-01 
   5.47710050E-01    5.13281720E-01 
P    1    1.000000
   1.52686140E-01    1.00000000E+00 
D    1    1.000000
   8.00000000E-01    1.00000000E+00 

6    0
S    5    1.000000
   1.23840169E+03    5.45688000E-03 
   1.86290050E+02    4.06384100E-02 
   4.22511764E+01    1.80255940E-01 
   1.16765579E+01    4.63151220E-01 
   3.59305065E+00    4.40871730E-01 
S    1    1.000000
   4.02451470E-01    1.00000000E+00 
S    1    1.000000
   1.30901830E-01    1.00000000E+00 
P    3    1.000000
   9.46809706E+00    3.83878700E-02 
   2.01035451E+00    2.11170250E-01 
   5.47710050E-01    5.13281720E-01 
P    1    1.000000
   1.52686140E-01    1.00000000E+00 
D    1    1.000000
   8.00000000E-01    1.00000000E+00 

7    0
S    5    1.000000
   1.23840169E+03    5.45688000E-03 
   1.86290050E+02    4.06384100E-02 
   4.22511764E+01    1.80255940E-01 
   1.16765579E+01    4.63151220E-01 
   3.59305065E+00    4.40871730E-01 
S    1    1.000000
   4.02451470E-01    1.00000000E+00 
S    1    1.000000
   1.30901830E-01    1.00000000E+00 
P    3    1.000000
   9.46809706E+00    3.83878700E-02 
   2.01035451E+00    2.11170250E-01 
   5.47710050E-01    5.13281720E-01 
P    1    1.000000
   1.52686140E-01    1.00000000E+00 
D    1    1.000000
   8.00000000E-01    1.00000000E+00 

8    0
S    5    1.000000
   1.23840169E+03    5.45688000E-03 
   1.86290050E+02    4.06384100E-02 
   4.22511764E+01    1.80255940E-01 
   1.16765579E+01    4.63151220E-01 
   3.59305065E+00    4.40871730E-01 
S    1    1.000000
   4.02451470E-01    1.00000000E+00 
S    1    1.000000
   1.30901830E-01    1.00000000E+00 
P    3    1.000000
   9.46809706E+00    3.83878700E-02 
   2.01035451E+00    2.11170250E-01 
   5.47710050E-01    5.13281720E-01 
P    1    1.000000
   1.52686140E-01    1.00000000E+00 
D    1    1.000000
   8.00000000E-01    1.00000000E+00 

9    0
S    5    1.000000
   1.23840169E+03    5.45688000E-03 
   1.86290050E+02    4.06384100E-02 
   4.22511764E+01    1.80255940E-01 
   1.16765579E+01    4.63151220E-01 
   3.59305065E+00    4.40871730E-01 
S    1    1.000000
   4.02451470E-01    1.00000000E+00 
S    1    1.000000
   1.30901830E-01    1.00000000E+00 
P    3    1.000000
   9.46809706E+00    3.83878700E-02 
   2.01035451E+00    2.11170250E-01 
   5.47710050E-01    5.13281720E-01 
P    1    1.000000
   1.52686140E-01    1.00000000E+00 
D    1    1.000000
   8.00000000E-01    1.00000000E+00 

10    0
S    5    1.000000
   1.23840169E+03    5.45688000E-03 
   1.86290050E+02    4.06384100E-02 
   4.22511764E+01    1.80255940E-01 
   1.16765579E+01    4.63151220E-01 
   3.59305065E+00    4.40871730E-01 
S    1    1.000000
   4.02451470E-01    1.00000000E+00 
S    1    1.000000
   1.30901830E-01    1.00000000E+00 
P    3    1.000000
   9.46809706E+00    3.83878700E-02 
   2.01035451E+00    2.11170250E-01 
   5.47710050E-01    5.13281720E-01 
P    1    1.000000
   1.52686140E-01    1.00000000E+00 
D    1    1.000000
   8.00000000E-01    1.00000000E+00 

11    0
S    5    1.000000
   1.23840169E+03    5.45688000E-03 
   1.86290050E+02    4.06384100E-02 
   4.22511764E+01    1.80255940E-01 
   1.16765579E+01    4.63151220E-01 
   3.59305065E+00    4.40871730E-01 
S    1    1.000000
   4.02451470E-01    1.00000000E+00 
S    1    1.000000
   1.30901830E-01    1.00000000E+00 
P    3    1.000000
   9.46809706E+00    3.83878700E-02 
   2.01035451E+00    2.11170250E-01 
   5.47710050E-01    5.13281720E-01 
P    1    1.000000
   1.52686140E-01    1.00000000E+00 
D    1    1.000000
   8.00000000E-01    1.00000000E+00 

12    0
S    5    1.000000
   1.23840169E+03    5.45688000E-03 
   1.86290050E+02    4.06384100E-02 
   4.22511764E+01    1.80255940E-01 
   1.16765579E+01    4.63151220E-01 
   3.59305065E+00    4.40871730E-01 
S    1    1.000000
   4.02451470E-01    1.00000000E+00 
S    1    1.000000
   1.30901830E-01    1.00000000E+00 
P    3    1.000000
   9.46809706E+00    3.83878700E-02 
   2.01035451E+00    2.11170250E-01 
   5.47710050E-01    5.13281720E-01 
P    1    1.000000
   1.52686140E-01    1.00000000E+00 
D    1    1.000000
   8.00000000E-01    1.00000000E+00 

13    0
S    5    1.000000
   1.23840169E+03    5.45688000E-03 
   1.86290050E+02    4.06384100E-02 
   4.22511764E+01    1.80255940E-01 
   1.16765579E+01    4.63151220E-01 
   3.59305065E+00    4.40871730E-01 
S    1    1.000000
   4.02451470E-01    1.00000000E+00 
S    1    1.000000
   1.30901830E-01    1.00000000E+00 
P    3    1.000000
   9.46809706E+00    3.83878700E-02 
   2.01035451E+00    2.11170250E-01 
   5.47710050E-01    5.13281720E-01 
P    1    1.000000
   1.52686140E-01    1.00000000E+00 
D    1    1.000000
   8.00000000E-01    1.00000000E+00 

14    0
S    5    1.000000
   1.23840169E+03    5.45688000E-03 
   1.86290050E+02    4.06384100E-02 
   4.22511764E+01    1.80255940E-01 
   1.16765579E+01    4.63151220E-01 
   3.59305065E+00    4.40871730E-01 
S    1    1.000000
   4.02451470E-01    1.00000000E+00 
S    1    1.000000
   1.30901830E-01    1.00000000E+00 
P    3    1.000000
   9.46809706E+00    3.83878700E-02 
   2.01035451E+00    2.11170250E-01 
   5.47710050E-01    5.13281720E-01 
P    1    1.000000
   1.52686140E-01    1.00000000E+00 
D    1    1.000000
   8.00000000E-01    1.00000000E+00 

15    0
S    5    1.000000
   1.23840169E+03    5.45688000E-03 
   1.86290050E+02    4.06384100E-02 
   4.22511764E+01    1.80255940E-01 
   1.16765579E+01    4.63151220E-01 
   3.59305065E+00    4.40871730E-01 
S    1    1.000000
   4.02451470E-01    1.00000000E+00 
S    1    1.000000
   1.30901830E-01    1.00000000E+00 
P    3    1.000000
   9.46809706E+00    3.83878700E-02 
   2.01035451E+00    2.11170250E-01 
   5.47710050E-01    5.13281720E-01 
P    1    1.000000
   1.52686140E-01    1.00000000E+00 
D    1    1.000000
   8.00000000E-01    1.00000000E+00 

16    0
S    5    1.000000
   1.23840169E+03    5.45688000E-03 
   1.86290050E+02    4.06384100E-02 
   4.22511764E+01    1.80255940E-01 
   1.16765579E+01    4.63151220E-01 
   3.59305065E+00    4.40871730E-01 
S    1    1.000000
   4.02451470E-01    1.00000000E+00 
S    1    1.000000
   1.30901830E-01    1.00000000E+00 
P    3    1.000000
   9.46809706E+00    3.83878700E-02 
   2.01035451E+00    2.11170250E-01 
   5.47710050E-01    5.13281720E-01 
P    1    1.000000
   1.52686140E-01    1.00000000E+00 
D    1    1.000000
   8.00000000E-01    1.00000000E+00 

17    0
S    5    1.000000
   1.23840169E+03    5.45688000E-03 
   1.86290050E+02    4.06384100E-02 
   4.22511764E+01    1.80255940E-01 
   1.16765579E+01    4.63151220E-01 
   3.59305065E+00    4.40871730E-01 
S    1    1.000000
   4.02451470E-01    1.00000000E+00 
S    1    1.000000
   1.30901830E-01    1.00000000E+00 
P    3    1.000000
   9.46809706E+00    3.83878700E-02 
   2.01035451E+00    2.11170250E-01 
   5.47710050E-01    5.13281720E-01 
P    1    1.000000
   1.52686140E-01    1.00000000E+00 
D    1    1.000000
   8.00000000E-01    1.00000000E+00 

18    0
S    5    1.000000
   1.23840169E+03    5.45688000E-03 
   1.86290050E+02    4.06384100E-02 
   4.22511764E+01    1.80255940E-01 
   1.16765579E+01    4.63151220E-01 
   3.59305065E+00    4.40871730E-01 
S    1    1.000000
   4.02451470E-01    1.00000000E+00 
S    1    1.000000
   1.30901830E-01    1.00000000E+00 
P    3    1.000000
   9.46809706E+00    3.83878700E-02 
   2.01035451E+00    2.11170250E-01 
   5.47710050E-01    5.13281720E-01 
P    1    1.000000
   1.52686140E-01    1.00000000E+00 
D    1    1.000000
   8.00000000E-01    1.00000000E+00 

19    0
S    5    1.000000
   1.23840169E+03    5.45688000E-03 
   1.86290050E+02    4.06384100E-02 
   4.22511764E+01    1.80255940E-01 
   1.16765579E+01    4.63151220E-01 
   3.59305065E+00    4.40871730E-01 
S    1    1.000000
   4.02451470E-01    1.00000000E+00 
S    1    1.000000
   1.30901830E-01    1.00000000E+00 
P    3    1.000000
   9.46809706E+00    3.83878700E-02 
   2.01035451E+00    2.11170250E-01 
   5.47710050E-01    5.13281720E-01 
P    1    1.000000
   1.52686140E-01    1.00000000E+00 
D    1    1.000000
   8.00000000E-01    1.00000000E+00 

20    0
S    5    1.000000
   1.23840169E+03    5.45688000E-03 
   1.86290050E+02    4.06384100E-02 
   4.22511764E+01    1.80255940E-01 
   1.16765579E+01    4.63151220E-01 
   3.59305065E+00    4.40871730E-01 
S    1    1.000000
   4.02451470E-01    1.00000000E+00 
S    1    1.000000
   1.30901830E-01    1.00000000E+00 
P    3    1.000000
   9.46809706E+00    3.83878700E-02 
   2.01035451E+00    2.11170250E-01 
   5.47710050E-01    5.13281720E-01 
P    1    1.000000
   1.52686140E-01    1.00000000E+00 
D    1    1.000000
   8.00000000E-01    1.00000000E+00 

21    0
S    5    1.000000
   1.23840169E+03    5.45688000E-03 
   1.86290050E+02    4.06384100E-02 
   4.22511764E+01    1.80255940E-01 
   1.16765579E+01    4.63151220E-01 
   3.59305065E+00    4.40871730E-01 
S    1    1.000000
   4.02451470E-01    1.00000000E+00 
S    1    1.000000
   1.30901830E-01    1.00000000E+00 
P    3    1.000000
   9.46809706E+00    3.83878700E-02 
   2.01035451E+00    2.11170250E-01 
   5.47710050E-01    5.13281720E-01 
P    1    1.000000
   1.52686140E-01    1.00000000E+00 
D    1    1.000000
   8.00000000E-01    1.00000000E+00 

22    0
S    5    1.000000
   1.23840169E+03    5.45688000E-03 
   1.86290050E+02    4.06384100E-02 
   4.22511764E+01    1.80255940E-01 
   1.16765579E+01    4.63151220E-01 
   3.59305065E+00    4.40871730E-01 
S    1    1.000000
   4.02451470E-01    1.00000000E+00 
S    1    1.000000
   1.30901830E-01    1.00000000E+00 
P    3    1.000000
   9.46809706E+00    3.83878700E-02 
   2.01035451E+00    2.11170250E-01 
   5.47710050E-01    5.13281720E-01 
P    1    1.000000
   1.52686140E-01    1.00000000E+00 
D    1    1.000000
   8.00000000E-01    1.00000000E+00 

23    0
S    3    1.000000
   1.30107010E+01    1.96821600E-02 
   1.96225720E+00    1.37965240E-01 
   4.44537960E-01    4.78319350E-01 
S    1    1.000000
   1.21949620E-01    1.00000000E+00 

24    0
S    3    1.000000
   1.30107010E+01    1.96821600E-02 
   1.96225720E+00    1.37965240E-01 
   4.44537960E-01    4.78319350E-01 
S    1    1.000000
   1.21949620E-01    1.00000000E+00 

25    0
S    3    1.000000
   1.30107010E+01    1.96821600E-02 
   1.96225720E+00    1.37965240E-01 
   4.44537960E-01    4.78319350E-01 
S    1    1.000000
   1.21949620E-01    1.00000000E+00 

26    0
S    3    1.000000
   1.30107010E+01    1.96821600E-02 
   1.96225720E+00    1.37965240E-01 
   4.44537960E-01    4.78319350E-01 
S    1    1.000000
   1.21949620E-01    1.00000000E+00 

27    0
S    3    1.000000
   1.30107010E+01    1.96821600E-02 
   1.96225720E+00    1.37965240E-01 
   4.44537960E-01    4.78319350E-01 
S    1    1.000000
   1.21949620E-01    1.00000000E+00 

28    0
S    3    1.000000
   1.30107010E+01    1.96821600E-02 
   1.96225720E+00    1.37965240E-01 
   4.44537960E-01    4.78319350E-01 
S    1    1.000000
   1.21949620E-01    1.00000000E+00 

29    0
S    3    1.000000
   1.30107010E+01    1.96821600E-02 
   1.96225720E+00    1.37965240E-01 
   4.44537960E-01    4.78319350E-01 
S    1    1.000000
   1.21949620E-01    1.00000000E+00 

30    0
S    3    1.000000
   1.30107010E+01    1.96821600E-02 
   1.96225720E+00    1.37965240E-01 
   4.44537960E-01    4.78319350E-01 
S    1    1.000000
   1.21949620E-01    1.00000000E+00 

31    0
S    3    1.000000
   1.30107010E+01    1.96821600E-02 
   1.96225720E+00    1.37965240E-01 
   4.44537960E-01    4.78319350E-01 
S    1    1.000000
   1.21949620E-01    1.00000000E+00 

32    0
S    3    1.000000
   1.30107010E+01    1.96821600E-02 
   1.96225720E+00    1.37965240E-01 
   4.44537960E-01    4.78319350E-01 
S    1    1.000000
   1.21949620E-01    1.00000000E+00 

33    0
S    3    1.000000
   1.30107010E+01    1.96821600E-02 
   1.96225720E+00    1.37965240E-01 
   4.44537960E-01    4.78319350E-01 
S    1    1.000000
   1.21949620E-01    1.00000000E+00 

34    0
S    3    1.000000
   1.30107010E+01    1.96821600E-02 
   1.96225720E+00    1.37965240E-01 
   4.44537960E-01    4.78319350E-01 
S    1    1.000000
   1.21949620E-01    1.00000000E+00 

35    0
S    3    1.000000
   1.30107010E+01    1.96821600E-02 
   1.96225720E+00    1.37965240E-01 
   4.44537960E-01    4.78319350E-01 
S    1    1.000000
   1.21949620E-01    1.00000000E+00 

36    0
S    3    1.000000
   1.30107010E+01    1.96821600E-02 
   1.96225720E+00    1.37965240E-01 
   4.44537960E-01    4.78319350E-01 
S    1    1.000000
   1.21949620E-01    1.00000000E+00 

37    0
S    3    1.000000
   1.30107010E+01    1.96821600E-02 
   1.96225720E+00    1.37965240E-01 
   4.44537960E-01    4.78319350E-01 
S    1    1.000000
   1.21949620E-01    1.00000000E+00 

38    0
S    3    1.000000
   1.30107010E+01    1.96821600E-02 
   1.96225720E+00    1.37965240E-01 
   4.44537960E-01    4.78319350E-01 
S    1    1.000000
   1.21949620E-01    1.00000000E+00 

39    0
S    3    1.000000
   1.30107010E+01    1.96821600E-02 
   1.96225720E+00    1.37965240E-01 
   4.44537960E-01    4.78319350E-01 
S    1    1.000000
   1.21949620E-01    1.00000000E+00 

40    0
S    3    1.000000
   1.30107010E+01    1.96821600E-02 
   1.96225720E+00    1.37965240E-01 
   4.44537960E-01    4.78319350E-01 
S    1    1.000000
   1.21949620E-01    1.00000000E+00 

[MO]
Sym=X
Ene= -10.202273
Spin=Alpha
Occup=1
     1   -1.002340195598e-03
     2   -1.215435460762e-04
     3    3.751675858372e-04
     4   -5.317261864550e-05
     5    3.382035244043e-05
     6    1.226223317713e-14
     7   -3.250750593075e-04
     8    3.057062691717e-04
     9   -9.884158853661e-15
    10   -5.097610034095e-05
    11   -9.623769757005e-15
    12    1.802749279884e-14
    13   -8.721633718197e-06
    14   -9.906067437860e-05
    15   -4.246623146061e-02
    16   -2.260632200685e-03
    17   -7.279902895534e-03
    18    6.193717805884e-05
    19   -3.741691657897e-05
    20   -4.204098518144e-14
    21    3.085610163715e-03
    22   -8.737771225485e-04
    23    2.479427772622e-14
    24    1.589428802371e-04
    25   -9.947648000216e-14
    26    3.492972756456e-14
    27   -5.433929269117e-05
    28   -2.511352820463e-06
    29   -9.815637189769e-04
    30   -6.941667927768e-06
    31   -5.376114079128e-04
    32    7.528940098662e-05
    33    6.510906263399e-06
    34    7.868259977010e-15
    35   -2.599999228726e-03
    36   -1.853568025243e-03
    37   -2.285166256638e-14
    38   -3.773361092877e-05
    39    9.132766457085e-16
    40   -5.777642682584e-15
    41   -1.583758944757e-04
    42    8.056621366120e-05
    43    1.845731922795e-04
    44    1.258804838213e-04
    45    2.019177688935e-03
    46   -3.736227517065e-05
    47   -2.384256564716e-05
    48   -1.090699325804e-15
    49   -1.553342612917e-03
    50    6.676324597284e-04
    51    1.184757012591e-14
    52   -1.423292809652e-05
    53   -2.839343700393e-16
    54    5.498602334572e-17
    55    4.661041739434e-05
    56   -4.530766605760e-06
    57    2.032200277089e-04
    58    1.683298332367e-04
    59    5.224516152219e-04
    60   -3.723651876498e-05
    61   -2.021118318432e-05
    62    2.398365070356e-15
    63    9.868236593114e-05
    64    5.531519845070e-04
    65   -5.953078713762e-15
    66    1.117441958329e-05
    67    6.222130128341e-16
    68   -1.042437860711e-15
    69    1.681705954838e-06
    70   -3.901104178586e-06
    71   -4.341455943632e-05
    72    8.991335850072e-05
    73    2.081418375764e-04
    74   -1.586276912952e-08
    75    2.477317542820e-05
    76   -1.049925608720e-15
    77    2.788336803284e-04
    78   -2.874186979981e-04
    79    6.769117480936e-15
    80    1.511733136304e-05
    81   -1.322742364078e-15
    82   -1.507865299079e-15
    83   -6.015298634815e-06
    84    1.635477274489e-05
    85   -1.555972643940e-03
    86    2.008982380578e-05
    87    7.216176694842e-03
    88   -1.426941895004e-04
    89   -1.600146823904e-04
    90   -2.881921833527e-14
    91    4.502260766901e-03
    92    3.527324780812e-03
    93    7.713892675543e-14
    94    3.226192399292e-05
    95   -6.199945565879e-15
    96   -7.392022804246e-16
    97    2.080239973532e-04
    98    1.123982198387e-04
    99   -5.039913428596e-03
   100    2.080934609722e-03
   101   -3.222320791680e-03
   102   -1.437755182086e-03
   103   -3.488694494337e-04
   104    9.855328744848e-15
   105   -3.991209982727e-03
   106   -6.144344974166e-04
   107   -2.631944285563e-13
   108   -7.365353957615e-04
   109    2.596244183999e-14
   110    5.094552810669e-15
   111    1.152917357709e-03
   112    4.503841051953e-04
   113   -6.973093534175e-01
   114   -3.361096598298e-02
   115    1.153782728093e-02
   116    4.764329340154e-04
   117    2.044262602193e-04
   118   -9.300337637274e-13
   119   -1.890253902207e-03
   120   -1.885916271861e-03
   121    6.153604014244e-13
   122    1.352812466105e-03
   123    4.262238201166e-13
   124    7.885880009876e-13
   125    8.298745787922e-06
   126   -5.723415695821e-05
   127   -1.074359910006e-02
   128    1.584689052986e-03
   129   -9.016030261502e-03
   130    9.974098160182e-04
   131   -1.088880790057e-03
   132    5.047117957398e-14
   133    4.401043585353e-03
   134   -4.612266803327e-03
   135   -3.278613453396e-13
   136   -7.764353024922e-04
   137   -5.458556632519e-14
   138    1.899966447231e-14
   139   -2.662367284781e-04
   140   -1.061982285426e-03
   141    1.104333567798e-02
   142   -1.462042631905e-03
   143    1.123674655173e-02
   144    4.369659251168e-04
   145    1.216544974668e-03
   146   -1.042077654230e-13
   147    2.801508472311e-03
   148    5.324928265030e-03
   149    3.637669111592e-13
   150    7.776440027121e-04
   151    3.188087101844e-14
   152    6.048264525779e-14
   153    8.601378076439e-04
   154   -7.368103319684e-04
   155    6.973100600151e-01
   156    3.361099909239e-02
   157   -1.153785362758e-02
   158    4.764329022996e-04
   159    2.044264461039e-04
   160    1.474944544914e-12
   161   -1.890254766265e-03
   162   -1.885922086144e-03
   163   -9.955666090159e-13
   164   -1.352813792455e-03
   165    2.964196813426e-13
   166    4.141253424680e-13
   167   -8.298674128629e-06
   168    5.723418274437e-05
   169    1.074361138751e-02
   170   -1.584691162420e-03
   171    9.016031783068e-03
   172    9.974111533995e-04
   173   -1.088882136885e-03
   174   -1.264275456175e-13
   175    4.401041508393e-03
   176   -4.612267549067e-03
   177    3.489065374107e-13
   178    7.764359643238e-04
   179   -6.606937244553e-14
   180   -9.730242197044e-15
   181    2.662368070243e-04
   182    1.061983324561e-03
   183   -1.104332281955e-02
   184    1.462040620848e-03
   185   -1.123673110914e-02
   186    4.369652120941e-04
   187    1.216543349359e-03
   188    1.170573216044e-13
   189    2.801508892428e-03
   190    5.324932634157e-03
   191   -1.401061132210e-13
   192   -7.776434786231e-04
   193    3.968469484380e-14
   194    1.653283036869e-13
   195   -8.601369794052e-04
   196    7.368096421260e-04
   197    5.039919126720e-03
   198   -2.080936706314e-03
   199    3.222334993839e-03
   200   -1.437756468768e-03
   201   -3.488698428666e-04
   202   -8.689873695197e-14
   203   -3.991215932088e-03
   204   -6.144305753049e-04
   205    4.099891359755e-13
   206    7.365361014610e-04
   207   -4.505612795224e-14
   208   -1.651883061751e-15
   209   -1.152918467343e-03
   210   -4.503846182497e-04
   211    1.555973614853e-03
   212   -2.008988858231e-05
   213   -7.216190795019e-03
   214   -1.426943475873e-04
   215   -1.600148886624e-04
   216    1.275602887932e-14
   217    4.502261685243e-03
   218    3.527331828800e-03
   219   -1.456700764941e-13
   220   -3.226191257118e-05
   221   -2.393559636237e-14
   222    2.266016531053e-14
   223   -2.080241934606e-04
   224   -1.123982194504e-04
   225    4.246626383605e-02
   226    2.260633795253e-03
   227    7.279911444900e-03
   228    6.193723098709e-05
   229   -3.741690326286e-05
   230   -1.729949278656e-13
   231    3.085613040705e-03
   232   -8.737800679065e-04
   233    1.520176838550e-13
   234   -1.589430239588e-04
   235   -9.939200452762e-14
   236   -5.692816199203e-14
   237    5.433934941131e-05
   238    2.511339248779e-06
   239    1.002341158653e-03
   240    1.215438277067e-04
   241   -3.751669335841e-04
   242   -5.317259673870e-05
   243    3.382036917058e-05
   244    1.961597620353e-15
   245   -3.250757490590e-04
   246    3.057062512825e-04
   247   -3.347803454518e-14
   248    5.097615157826e-05
   249    7.534352331371e-15
   250    1.871309000147e-15
   251    8.721662048357e-06
   252    9.906076266594e-05
   253    4.341455895805e-05
   254   -8.991342314843e-05
   255   -2.081427572355e-04
   256   -1.587019428925e-08
   257    2.477319109833e-05
   258    3.719961475112e-15
   259    2.788335457302e-04
   260   -2.874189015541e-04
   261    2.958874893398e-15
   262   -1.511733128091e-05
   263    1.325280842657e-15
   264    1.506930395591e-15
   265    6.015288910523e-06
   266   -1.635478815431e-05
   267   -2.032202697494e-04
   268   -1.683299998819e-04
   269   -5.224523411878e-04
   270   -3.723655377842e-05
   271   -2.021118981565e-05
   272    3.050154264234e-15
   273    9.868241382718e-05
   274    5.531525812840e-04
   275   -1.236444234275e-14
   276   -1.117442443087e-05
   277   -1.119260205259e-15
   278    9.830122828927e-16
   279   -1.681706846320e-06
   280    3.901112332956e-06
   281   -1.845734439758e-04
   282   -1.258806512905e-04
   283   -2.019179073728e-03
   284   -3.736229575796e-05
   285   -2.384259345022e-05
   286    8.906387765779e-16
   287   -1.553344081513e-03
   288    6.676334238646e-04
   289    1.938963638176e-14
   290    1.423294244213e-05
   291    2.708764608142e-15
   292    2.002054550286e-17
   293   -4.661045670867e-05
   294    4.530771552964e-06
   295    9.815643939964e-04
   296    6.941661117700e-06
   297    5.376096017823e-04
   298    7.528945932847e-05
   299    6.510907009763e-06
   300    3.466728871470e-15
   301   -2.600001972863e-03
   302   -1.853570724766e-03
   303   -6.470803449684e-14
   304    3.773365486955e-05
   305   -2.029272839401e-17
   306   -1.247743628624e-14
   307    1.583760419378e-04
   308   -8.056629582377e-05
   309   -5.773570844557e-05
   310   -1.136911877822e-04
   311    7.903044199362e-04
   312   -2.679289612949e-04
   313    6.298746591134e-04
   314   -3.506809390502e-04
   315   -7.528860908964e-04
   316   -3.088752547754e-03
   317   -1.941634196591e-04
   318    9.156235018689e-04
   319    8.162212559836e-04
   320    2.245594198776e-03
   321   -7.033995747957e-05
   322   -3.267049584579e-04
   323    7.528861471509e-04
   324    3.088751516082e-03
   325   -7.114810025940e-05
   326   -1.904693804029e-04
   327   -8.162215595418e-04
   328   -2.245594843341e-03
   329   -2.325464003988e-05
   330    1.275561801733e-04
   331   -6.298749674710e-04
   332    3.506808504350e-04
   333   -7.903052783993e-04
   334    2.679284025601e-04
   335    2.325470844888e-05
   336   -1.275562081981e-04
   337    7.114815723995e-05
   338    1.904695189078e-04
   339    5.773576788098e-05
   340    1.136912999826e-04
   341    7.034005161839e-05
   342    3.267052855756e-04
   343    1.941635871762e-04
   344   -9.156242364366e-04
Sym=X
Ene= -10.202242
Spin=Alpha
Occup=1
     1    9.896196555510e-04
     2    2.715143415900e-04
     3    6.581904085660e-04
     4   -1.766380056250e-05
     5   -2.073446259000e-05
     6   -8.198665075438e-15
     7    6.827950988144e-04
     8    9.569587390078e-06
     9    9.761251529012e-15
    10    5.304341472047e-05
    11    6.931482481198e-15
    12   -1.393159322816e-14
    13    2.861574233416e-05
    14    9.067053823055e-05
    15    3.425590135250e-02
    16    1.683065094116e-03
    17    8.372518070953e-03
    18   -5.099977612041e-05
    19   -1.245376411468e-05
    20    3.697010622056e-14
    21   -2.841189738338e-03
    22    2.894089871650e-03
    23   -3.242533307963e-14
    24   -1.462490204236e-04
    25    7.910755889838e-14
    26   -2.964179883354e-14
    27    5.591735932773e-05
    28   -1.347327508141e-05
    29    7.040785563023e-04
    30   -1.254250527181e-05
    31   -1.739190457746e-03
    32   -5.579080089027e-05
    33    3.923719118327e-06
    34   -1.344280496701e-14
    35    2.711696159230e-03
    36    2.665896616130e-03
    37    4.164520982241e-14
    38    4.550769325479e-05
    39   -6.230251964753e-17
    40    3.098724111936e-15
    41    1.483893718506e-04
    42   -8.337642082325e-05
    43   -2.713703678738e-04
    44   -1.664710551645e-04
    45   -1.377342400797e-03
    46    2.001657437960e-05
    47    2.772262603013e-05