[Molden Format]
[Title]
 Molden file created by orca_2mkl for BaseName=orca

[Atoms] AU
C    1   6          0.0000000000         3.3070207344         1.1224389627 
C    2   6          0.0000000000        -3.3070207344         1.1224389627 
O    3   8          0.0000000000         3.3070207344        -1.1218375885 
O    4   8          0.0000000000        -3.3070207344        -1.1218375885 
H    5   1         -1.7478077013         3.3070207344         2.2156077366 
H    6   1         -1.7478077013        -3.3070207344         2.2156077366 
H    7   1          1.7478077013         3.3070207344         2.2156077366 
H    8   1          1.7478077013        -3.3070207344         2.2156077366 
[GTO]
  1 0
s   5 1.0 
     1238.4016938000         0.8208956682
      186.2900499200         1.4766449896
       42.2511763460         2.1526124058
       11.6765579320         2.1081722461
        3.5930506482         0.8290999933
s   1 1.0 
        0.4024514736         0.3601183351
s   1 1.0 
        0.1309018267         0.1551027052
p   3 1.0 
        9.4680970621         1.3467645142
        2.0103545142         1.0678070931
        0.5477100471         0.5108735714
p   1 1.0 
        0.1526861379         0.1360471976
d   1 1.0 
        0.8000000000         1.9292013661

  2 0
s   5 1.0 
     1238.4016938000         0.8208956682
      186.2900499200         1.4766449896
       42.2511763460         2.1526124058
       11.6765579320         2.1081722461
        3.5930506482         0.8290999933
s   1 1.0 
        0.4024514736         0.3601183351
s   1 1.0 
        0.1309018267         0.1551027052
p   3 1.0 
        9.4680970621         1.3467645142
        2.0103545142         1.0678070931
        0.5477100471         0.5108735714
p   1 1.0 
        0.1526861379         0.1360471976
d   1 1.0 
        0.8000000000         1.9292013661

  3 0
s   5 1.0 
     2266.1767785000        -1.2615859742
      340.8701019100        -2.2748500410
       77.3631351670        -3.3479623295
       21.4796449400        -3.3299980531
        6.6589433124        -1.3203828288
s   1 1.0 
        0.8097597567         0.6083832301
s   1 1.0 
        0.2553077223         0.2559811911
p   3 1.0 
       17.7215043170         3.2460107647
        3.8635505440         2.5734959178
        1.0480920883         1.1208372892
p   1 1.0 
        0.2764154441         0.2856886381
d   1 1.0 
        1.2000000000         3.9222679946

  4 0
s   5 1.0 
     2266.1767785000        -1.2615859742
      340.8701019100        -2.2748500410
       77.3631351670        -3.3479623295
       21.4796449400        -3.3299980531
        6.6589433124        -1.3203828288
s   1 1.0 
        0.8097597567         0.6083832301
s   1 1.0 
        0.2553077223         0.2559811911
p   3 1.0 
       17.7215043170         3.2460107647
        3.8635505440         2.5734959178
        1.0480920883         1.1208372892
p   1 1.0 
        0.2764154441         0.2856886381
d   1 1.0 
        1.2000000000         3.9222679946

  5 0
s   3 1.0 
       13.0107010000         0.1634903809
        1.9622572000         0.2773515510
        0.4445379600         0.3157501452
s   1 1.0 
        0.1219496200         0.1470772262
p   1 1.0 
        0.8000000000         1.0784563492

  6 0
s   3 1.0 
       13.0107010000         0.1634903809
        1.9622572000         0.2773515510
        0.4445379600         0.3157501452
s   1 1.0 
        0.1219496200         0.1470772262
p   1 1.0 
        0.8000000000         1.0784563492

  7 0
s   3 1.0 
       13.0107010000         0.1634903809
        1.9622572000         0.2773515510
        0.4445379600         0.3157501452
s   1 1.0 
        0.1219496200         0.1470772262
p   1 1.0 
        0.8000000000         1.0784563492

  8 0
s   3 1.0 
       13.0107010000         0.1634903809
        1.9622572000         0.2773515510
        0.4445379600         0.3157501452
s   1 1.0 
        0.1219496200         0.1470772262
p   1 1.0 
        0.8000000000         1.0784563492

[5D]
[9G]
[MO]
 Sym=     1a
 Ene= -1.97011043901477E+01
 Spin= Alpha
 Occup= 2.000000
  1       0.000238135699
  2       0.000276898731
  3       0.009275469342
  4      -0.000000000000
  5       0.000213856912
  6       0.000774547840
  7       0.000000000000
  8      -0.000768812659
  9      -0.005052439763
 10      -0.001472189633
 11      -0.000000000000
 12       0.000018791017
 13       0.000448878147
 14      -0.000000000000
 15      -0.000238135699
 16      -0.000276898731
 17      -0.009275469342
 18       0.000000000000
 19       0.000213856912
 20      -0.000774547840
 21      -0.000000000000
 22      -0.000768812659
 23       0.005052439763
 24       0.001472189633
 25      -0.000000000000
 26       0.000018791017
 27      -0.000448878147
 28      -0.000000000000
 29      -0.699559416592
 30       0.027709856143
 31      -0.018749430912
 32       0.000000000000
 33      -0.000003217896
 34       0.002183328856
 35      -0.000000000000
 36       0.000155464973
 37      -0.004110229109
 38       0.000420762908
 39      -0.000000000000
 40       0.000024237236
 41       0.000030977306
 42       0.000000000000
 43       0.699559416592
 44      -0.027709856143
 45       0.018749430912
 46       0.000000000000
 47      -0.000003217896
 48      -0.002183328856
 49       0.000000000000
 50       0.000155464973
 51       0.004110229109
 52      -0.000420762908
 53       0.000000000000
 54       0.000024237236
 55      -0.000030977306
 56      -0.000000000000
 57      -0.000633426286
 58      -0.000569615274
 59       0.000090311186
 60       0.000113796505
 61       0.000617840546
 62       0.000633426286
 63       0.000569615274
 64      -0.000090311186
 65       0.000113796505
 66      -0.000617840546
 67      -0.000633426286
 68      -0.000569615274
 69      -0.000090311186
 70       0.000113796505
 71       0.000617840546
 72       0.000633426286
 73       0.000569615274
 74       0.000090311186
 75       0.000113796505
 76      -0.000617840546
 Sym=     1a
 Ene= -1.97010836648875E+01
 Spin= Alpha
 Occup= 2.000000
  1      -0.000205754565
  2      -0.000700670438
  3      -0.006660389818
  4       0.000000000000
  5       0.000053736758
  6      -0.000881786431
  7      -0.000000000000
  8      -0.000232468723
  9       0.004477328945
 10       0.001537573459
 11      -0.000000000000
 12       0.000005742977
 13      -0.000368043359
 14      -0.000000000000
 15      -0.000205754565
 16      -0.000700670438
 17      -0.006660389818
 18      -0.000000000000
 19      -0.000053736758
 20      -0.000881786431
 21      -0.000000000000
 22       0.000232468723
 23       0.004477328945
 24       0.001537573459
 25      -0.000000000000
 26      -0.000005742977
 27      -0.000368043359
 28       0.000000000000
 29       0.699588813175
 30      -0.027351687075
 31       0.017108583971
 32       0.000000000000
 33       0.000005686285
 34      -0.002168904126
 35       0.000000000000
 36       0.000012785999
 37       0.003608000336
 38      -0.000453120246
 39      -0.000000000000
 40       0.000006528491
 41      -0.000056750271
 42       0.000000000000
 43       0.699588813175
 44      -0.027351687075
 45       0.017108583971
 46       0.000000000000
 47      -0.000005686285
 48      -0.002168904126
 49       0.000000000000
 50      -0.000012785999
 51       0.003608000336
 52      -0.000453120246
 53       0.000000000000
 54      -0.000006528491
 55      -0.000056750271
 56       0.000000000000
 57       0.000358199399
 58       0.000237968322
 59      -0.000105262306
 60       0.000032580072
 61      -0.000535021869
 62       0.000358199399
 63       0.000237968322
 64      -0.000105262306
 65      -0.000032580072
 66      -0.000535021869
 67       0.000358199399
 68       0.000237968322
 69       0.000105262306
 70       0.000032580072
 71      -0.000535021869
 72       0.000358199399
 73       0.000237968322
 74       0.000105262306
 75      -0.000032580072
 76      -0.000535021869
 Sym=     1a
 Ene= -1.06964330053729E+01
 Spin= Alpha
 Occup= 2.000000
  1       0.699470645486
  2       0.031601795230
  3      -0.015695652757
  4       0.000000000000
  5      -0.000315909099
  6      -0.000299233914
  7       0.000000000000
  8       0.001084400496
  9      -0.003806822438
 10       0.001076721351
 11       0.000000000000
 12      -0.000016324952
 13       0.001430358362
 14       0.000000000000
 15      -0.699470645486
 16      -0.031601795230
 17       0.015695652757
 18       0.000000000000
 19      -0.000315909099
 20       0.000299233914
 21      -0.000000000000
 22       0.001084400496
 23       0.003806822438
 24      -0.001076721351
 25       0.000000000000
 26      -0.000016324952
 27      -0.001430358362
 28       0.000000000000
 29       0.000190984715
 30      -0.000290887873
 31      -0.003540617662
 32       0.000000000000
 33       0.000012516307
 34      -0.000423088583
 35       0.000000000000
 36      -0.000256141193
 37      -0.003697773752
 38      -0.000167541775
 39       0.000000000000
 40      -0.000031416237
 41      -0.000129693761
 42      -0.000000000000
 43      -0.000190984716
 44       0.000290887873
 45       0.003540617662
 46      -0.000000000000
 47       0.000012516307
 48       0.000423088583
 49       0.000000000000
 50      -0.000256141193
 51       0.003697773752
 52       0.000167541775
 53      -0.000000000000
 54      -0.000031416237
 55       0.000129693761
 56      -0.000000000000
 57      -0.002340816158
 58       0.004913821125
 59      -0.001262025762
 60      -0.000163539177
 61       0.001012228345
 62       0.002340816158
 63      -0.004913821125
 64       0.001262025762
 65      -0.000163539177
 66      -0.001012228345
 67      -0.002340816158
 68       0.004913821125
 69       0.001262025762
 70      -0.000163539177
 71       0.001012228345
 72       0.002340816158
 73      -0.004913821125
 74      -0.001262025762
 75      -0.000163539177
 76      -0.001012228345
 Sym=     1a
 Ene= -1.06963952446616E+01
 Spin= Alpha
 Occup= 2.000000
  1       0.699530932029
  2       0.030935263315
  3      -0.011190787055
  4       0.000000000000
  5       0.000090359000
  6      -0.000502402464
  7      -0.000000000000
  8      -0.000339948394
  9      -0.004347398748
 10       0.001190212380
 11      -0.000000000000
 12      -0.000003465847
 13       0.001602530357
 14      -0.000000000000
 15       0.699530932029
 16       0.030935263315
 17      -0.011190787055
 18       0.000000000000
 19      -0.000090359000
 20      -0.000502402464
 21      -0.000000000000
 22       0.000339948394
 23      -0.004347398748
 24       0.001190212380
 25      -0.000000000000
 26       0.000003465847
 27       0.001602530357
 28      -0.000000000000
 29       0.000240749184
 30       0.000301580513
 31      -0.006056435910
 32       0.000000000000
 33       0.000005627576
 34      -0.000384369011
 35       0.000000000000
 36       0.000057088459
 37      -0.004528839139
 38      -0.000222074714
 39       0.000000000000
 40       0.000008008464
 41      -0.000145403190
 42       0.000000000000
 43       0.000240749184
 44       0.000301580513
 45      -0.006056435910
 46       0.000000000000
 47      -0.000005627576
 48      -0.000384369011
 49       0.000000000000
 50      -0.000057088459
 51      -0.004528839139
 52      -0.000222074714
 53       0.000000000000
 54      -0.000008008464
 55      -0.000145403190
 56      -0.000000000000
 57      -0.002764142166
 58       0.004015636485
 59      -0.001333972686
 60       0.000054803835
 61       0.001132810151
 62      -0.002764142166
 63       0.004015636485
 64      -0.001333972686
 65      -0.000054803835
 66       0.001132810151
 67      -0.002764142166
 68       0.004015636485
 69       0.001333972686
 70       0.000054803835
 71       0.001132810151
 72      -0.002764142166
 73       0.004015636485
 74       0.001333972686
 75      -0.000054803835
 76       0.001132810151
 Sym=     1a
 Ene= -1.19680209619968E+00
 Spin= Alpha
 Occup= 2.000000
  1      -0.105751499905
  2       0.201448521179
  3       0.021653196540
  4       0.000000000000
  5      -0.000118283441
  6      -0.141512918659
  7      -0.000000000000
  8      -0.001214337279
  9      -0.013034213358
 10       0.021595170610
 11       0.000000000000
 12       0.000036478467
 13      -0.001735434443
 14      -0.000000000000
 15      -0.105751499905
 16       0.201448521179
 17       0.021653196540
 18      -0.000000000000
 19       0.000118283441
 20      -0.141512918659
 21       0.000000000000
 22       0.001214337279
 23      -0.013034213358
 24       0.021595170610
 25      -0.000000000000
 26      -0.000036478467
 27      -0.001735434443
 28       0.000000000000
 29       0.182308958242
 30       0.361989497141
 31       0.182158215328
 32       0.000000000000
 33      -0.000090906516
 34       0.117126750767
 35      -0.000000000000
 36       0.000232420001
 37       0.020312464829
 38       0.011298608204
 39      -0.000000000000
 40      -0.000017407034
 41      -0.001222781719
 42       0.000000000000
 43       0.182308958242
 44       0.361989497141
 45       0.182158215328
 46       0.000000000000
 47       0.000090906516
 48       0.117126750767
 49      -0.000000000000
 50      -0.000232420001
 51       0.020312464829
 52       0.011298608204
 53       0.000000000000
 54       0.000017407034
 55      -0.001222781719
 56       0.000000000000
 57       0.023543050527
 58       0.003266522645
 59       0.005109511999
 60       0.000079843914
 61      -0.002900448585
 62       0.023543050527
 63       0.003266522645
 64       0.005109511999
 65      -0.000079843914
 66      -0.002900448585
 67       0.023543050527
 68       0.003266522645
 69      -0.005109511999
 70       0.000079843914
 71      -0.002900448585
 72       0.023543050527
 73       0.003266522645
 74      -0.005109511999
 75      -0.000079843914
 76      -0.002900448585
 Sym=     1a
 Ene= -1.19578385556626E+00
 Spin= Alpha
 Occup= 2.000000
  1      -0.105883042840
  2       0.202876909260
  3       0.013622644533
  4       0.000000000000
  5      -0.000318435846
  6      -0.141644398624
  7      -0.000000000000
  8       0.001760721746
  9      -0.011134152786
 10       0.021456968621
 11       0.000000000000
 12      -0.000023563381
 13      -0.001864728936
 14       0.000000000000
 15       0.105883042840
 16      -0.202876909260
 17      -0.013622644533
 18       0.000000000000
 19      -0.000318435846
 20       0.141644398624
 21      -0.000000000000
 22       0.001760721746
 23       0.011134152786
 24      -0.021456968621
 25       0.000000000000
 26      -0.000023563381
 27       0.001864728936
 28      -0.000000000000
 29       0.182588180393
 30       0.361877260773
 31       0.187263373690
 32      -0.000000000000
 33       0.000379959846
 34       0.117363214678
 35       0.000000000000
 36       0.000190823929
 37       0.022030963687
 38       0.011421660461
 39       0.000000000000
 40      -0.000017647889
 41      -0.001172054107
 42      -0.000000000000
 43      -0.182588180393
 44      -0.361877260773
 45      -0.187263373690
 46      -0.000000000000
 47       0.000379959846
 48      -0.117363214678
 49       0.000000000000
 50       0.000190823929
 51      -0.022030963687
 52      -0.011421660461
 53       0.000000000000
 54      -0.000017647889
 55       0.001172054107
 56       0.000000000000
 57       0.024051365975
 58       0.004447996852
 59       0.005137476950
 60      -0.000180857700
 61      -0.003079195508
 62      -0.024051365975
 63      -0.004447996852
 64      -0.005137476950
 65      -0.000180857700
 66       0.003079195508
 67       0.024051365975
 68       0.004447996852
 69      -0.005137476950
 70      -0.000180857700
 71      -0.003079195508
 72      -0.024051365975
 73      -0.004447996852
 74       0.005137476950
 75      -0.000180857700
 76       0.003079195508
 Sym=     1a
 Ene= -7.29615208212993E-01
 Spin= Alpha
 Occup= 2.000000
  1       0.145922468983
  2      -0.301150832979
  3      -0.103618374619
  4      -0.000000000000
  5       0.002600999571
  6      -0.150620244839
  7       0.000000000000
  8       0.003971308175
  9      -0.056574911516
 10       0.006339367644
 11      -0.000000000000
 12      -0.000075206728
 13      -0.005697487570
 14      -0.000000000000
 15       0.145922468983
 16      -0.301150832979
 17      -0.103618374619
 18       0.000000000000
 19      -0.002600999571
 20      -0.150620244839
 21       0.000000000000
 22      -0.003971308175
 23      -0.056574911516
 24       0.006339367644
 25       0.000000000000
 26       0.000075206728
 27      -0.005697487570
 28      -0.000000000000
 29       0.081091272252
 30       0.171990333407
 31       0.128809733639
 32      -0.000000000000
 33       0.002231130398
 34      -0.074649778826
 35      -0.000000000000
 36      -0.000201747556
 37      -0.047561010498
 38      -0.005929542103
 39      -0.000000000000
 40       0.000085264985
 41      -0.000400022097
 42       0.000000000000
 43       0.081091272252
 44       0.171990333407
 45       0.128809733639
 46       0.000000000000
 47      -0.002231130398
 48      -0.074649778826
 49       0.000000000000
 50       0.000201747556
 51      -0.047561010498
 52      -0.005929542103
 53       0.000000000000
 54      -0.000085264985
 55      -0.000400022097
 56       0.000000000000
 57      -0.169211035431
 58      -0.029369840232
 59      -0.015069885999
 60       0.000140987537
 61       0.006177284245
 62      -0.169211035431
 63      -0.029369840232
 64      -0.015069885999
 65      -0.000140987537
 66       0.006177284245
 67      -0.169211035431
 68      -0.029369840232
 69       0.015069885999
 70       0.000140987537
 71       0.006177284245
 72      -0.169211035431
 73      -0.029369840232
 74       0.015069885999
 75      -0.000140987537
 76       0.006177284245
 Sym=     1a
 Ene= -7.25823173339463E-01
 Spin= Alpha
 Occup= 2.000000
  1      -0.147422420723
  2       0.305442356646
  3       0.100725713489
  4      -0.000000000000
  5       0.000860777890
  6       0.150672017459
  7       0.000000000000
  8       0.001886788045
  9       0.056799787077
 10      -0.006174336393
 11      -0.000000000000
 12      -0.000254154069
 13       0.005854422900
 14      -0.000000000000
 15       0.147422420723
 16      -0.305442356646
 17      -0.100725713489
 18      -0.000000000000
 19       0.000860777890
 20      -0.150672017459
 21       0.000000000000
 22       0.001886788045
 23      -0.056799787077
 24       0.006174336393
 25      -0.000000000000
 26      -0.000254154069
 27      -0.005854422900
 28      -0.000000000000
 29      -0.081202321369
 30      -0.173043336395
 31      -0.126822465436
 32       0.000000000000
 33       0.000900525440
 34       0.077076487305
 35      -0.000000000000
 36      -0.000729045048
 37       0.049344711358
 38       0.006126684483
 39      -0.000000000000
 40       0.000079886618
 41       0.000417588152
 42       0.000000000000
 43       0.081202321369
 44       0.173043336395
 45       0.126822465436
 46       0.000000000000
 47       0.000900525440
 48      -0.077076487305
 49      -0.000000000000
 50      -0.000729045048
 51      -0.049344711358
 52      -0.006126684483
 53       0.000000000000
 54       0.000079886618
 55      -0.000417588152
 56      -0.000000000000
 57       0.171162107297
 58       0.029121349198
 59       0.015186543384
 60      -0.000134442114
 61      -0.006223856737
 62      -0.171162107297
 63      -0.029121349198
 64      -0.015186543384
 65      -0.000134442114
 66       0.006223856737
 67       0.171162107297
 68       0.029121349198
 69      -0.015186543384
 70      -0.000134442114
 71      -0.006223856737
 72      -0.171162107297
 73      -0.029121349198
 74       0.015186543384
 75      -0.000134442114
 76       0.006223856737
 Sym=     1a
 Ene= -5.88749842798493E-01
 Spin= Alpha
 Occup= 2.000000
  1      -0.000000000000
  2      -0.000000000000
  3       0.000000000000
  4      -0.301454343323
  5      -0.000000000000
  6      -0.000000000000
  7      -0.095471822035
  8      -0.000000000000
  9      -0.000000000000
 10       0.000000000000
 11       0.002526695131
 12      -0.000000000000
 13      -0.000000000000
 14       0.000211697736
 15      -0.000000000000
 16      -0.000000000000
 17      -0.000000000000
 18      -0.301454343323
 19      -0.000000000000
 20       0.000000000000
 21      -0.095471822035
 22      -0.000000000000
 23       0.000000000000
 24       0.000000000000
 25       0.002526695131
 26      -0.000000000000
 27      -0.000000000000
 28      -0.000211697736
 29      -0.000000000000
 30      -0.000000000000
 31       0.000000000000
 32      -0.219642304564
 33      -0.000000000000
 34      -0.000000000000
 35      -0.124896467478
 36       0.000000000000
 37       0.000000000000
 38      -0.000000000000
 39      -0.014804164811
 40       0.000000000000
 41      -0.000000000000
 42      -0.000001865344
 43       0.000000000000
 44       0.000000000000
 45       0.000000000000
 46      -0.219642304564
 47      -0.000000000000
 48      -0.000000000000
 49      -0.124896467478
 50       0.000000000000
 51       0.000000000000
 52      -0.000000000000
 53      -0.014804164811
 54      -0.000000000000
 55      -0.000000000000
 56       0.000001865344
 57       0.174771801666
 58       0.052638171541
 59       0.006940775755
 60      -0.000294854741
 61      -0.006831093844
 62       0.174771801666
 63       0.052638171541
 64       0.006940775755
 65       0.000294854741
 66      -0.006831093844
 67      -0.174771801666
 68      -0.052638171541
 69       0.006940775755
 70       0.000294854741
 71       0.006831093844
 72      -0.174771801666
 73      -0.052638171541
 74       0.006940775755
 75      -0.000294854741
 76       0.006831093844
 Sym=     1a
 Ene= -5.86233914673334E-01
 Spin= Alpha
 Occup= 2.000000
  1       0.000000000000
  2       0.000000000000
  3       0.000000000000
  4       0.303245134278
  5       0.000000000000
  6       0.000000000000
  7       0.095730944927
  8       0.000000000000
  9       0.000000000000
 10      -0.000000000000
 11      -0.002694160762
 12       0.000000000000
 13       0.000000000000
 14       0.000029148481
 15      -0.000000000000
 16       0.000000000000
 17      -0.000000000000
 18      -0.303245134278
 19       0.000000000000
 20       0.000000000000
 21      -0.095730944927
 22       0.000000000000
 23       0.000000000000
 24      -0.000000000000
 25       0.002694160762
 26      -0.000000000000
 27       0.000000000000
 28       0.000029148481
 29       0.000000000000
 30       0.000000000000
 31      -0.000000000000
 32       0.221846500326
 33      -0.000000000000
 34      -0.000000000000
 35       0.126200467607
 36      -0.000000000000
 37      -0.000000000000
 38      -0.000000000000
 39       0.014914031323
 40      -0.000000000000
 41      -0.000000000000
 42       0.000089959375
 43       0.000000000000
 44       0.000000000000
 45      -0.000000000000
 46      -0.221846500326
 47      -0.000000000000
 48      -0.000000000000
 49      -0.126200467607
 50       0.000000000000
 51       0.000000000000
 52       0.000000000000
 53      -0.014914031323
 54       0.000000000000
 55       0.000000000000
 56       0.000089959375
 57      -0.175980329207
 58      -0.049999343801
 59      -0.006893695135
 60       0.000047414932
 61       0.006846647497
 62       0.175980329207
 63       0.049999343801
 64       0.006893695135
 65       0.000047414932
 66      -0.006846647497
 67       0.175980329207
 68       0.049999343801
 69      -0.006893695135
 70      -0.000047414932
 71      -0.006846647497
 72      -0.175980329207
 73      -0.049999343801
 74       0.006893695135
 75      -0.000047414932
 76       0.006846647497
 Sym=     1a
 Ene= -5.38549199095377E-01
 Spin= Alpha
 Occup= 2.000000
  1      -0.028228074375
  2       0.081339016571
  3      -0.041027999978
  4      -0.000000000000
  5       0.006128354705
  6      -0.258442386858
  7      -0.000000000000
  8       0.003827550671
  9      -0.039488446004
 10       0.014548987699
 11      -0.000000000000
 12      -0.000347431557
 13      -0.004303130490
 14       0.000000000000
 15      -0.028228074375
 16       0.081339016571
 17      -0.041027999978
 18       0.000000000000
 19      -0.006128354705
 20      -0.258442386858
 21       0.000000000000
 22      -0.003827550671
 23      -0.039488446004
 24       0.014548987699
 25      -0.000000000000
 26       0.000347431557
 27      -0.004303130490
 28       0.000000000000
 29      -0.076102906541
 30      -0.153826359018
 31      -0.223210324814
 32       0.000000000000
 33       0.006899196787
 34       0.365629095821
 35       0.000000000000
 36       0.005599264980
 37       0.189533037628
 38       0.016034354551
 39       0.000000000000
 40       0.000593808020
 41       0.000163663346
 42      -0.000000000000
 43      -0.076102906541
 44      -0.153826359018
 45      -0.223210324814
 46       0.000000000000
 47      -0.006899196787
 48       0.365629095821
 49       0.000000000000
 50      -0.005599264980
 51       0.189533037628
 52       0.016034354551
 53       0.000000000000
 54      -0.000593808020
 55       0.000163663346
 56      -0.000000000000
 57      -0.074460472516
 58      -0.026400726191
 59      -0.005464164247
 60       0.000280716978
 61      -0.001991093064
 62      -0.074460472516
 63      -0.026400726191
 64      -0.005464164247
 65      -0.000280716978
 66      -0.001991093064
 67      -0.074460472516
 68      -0.026400726191
 69       0.005464164247
 70       0.000280716978
 71      -0.001991093064
 72      -0.074460472516
 73      -0.026400726191
 74       0.005464164247
 75      -0.000280716978
 76      -0.001991093064
 Sym=     1a
 Ene= -5.37013219690674E-01
 Spin= Alpha
 Occup= 2.000000
  1      -0.026623501729
  2       0.077933859119
  3      -0.040883199393
  4      -0.000000000000
  5      -0.005994552338
  6      -0.259932339849
  7      -0.000000000000
  8      -0.002324522286
  9      -0.045013557314
 10       0.014617188312
 11      -0.000000000000
 12       0.000485361130
 13      -0.004603201863
 14      -0.000000000000
 15       0.026623501729
 16      -0.077933859119
 17       0.040883199393
 18      -0.000000000000
 19      -0.005994552338
 20       0.259932339849
 21       0.000000000000
 22      -0.002324522286
 23       0.045013557314
 24      -0.014617188312
 25      -0.000000000000
 26       0.000485361130
 27       0.004603201863
 28       0.000000000000
 29      -0.076484363566
 30      -0.154996784987
 31      -0.226276532860
 32      -0.000000000000
 33      -0.008503654980
 34       0.365647875860
 35      -0.000000000000
 36      -0.008054065861
 37       0.187461638710
 38       0.015875069705
 39      -0.000000000000
 40      -0.000468345654
 41       0.000064179398
 42       0.000000000000
 43       0.076484363566
 44       0.154996784987
 45       0.226276532860
 46       0.000000000000
 47      -0.008503654980
 48      -0.365647875860
 49      -0.000000000000
 50      -0.008054065861
 51      -0.187461638710
 52      -0.015875069705
 53       0.000000000000
 54      -0.000468345654
 55      -0.000064179398
 56       0.000000000000
 57      -0.076198950032
 58      -0.025031385314
 59      -0.005450334500
 60      -0.000180795538
 61      -0.001763843735
 62       0.076198950032
 63       0.025031385314
 64       0.005450334500
 65      -0.000180795538
 66       0.001763843735
 67      -0.076198950032
 68      -0.025031385314
 69       0.005450334500
 70      -0.000180795538
 71      -0.001763843735
 72       0.076198950032
 73       0.025031385314
 74      -0.005450334500
 75      -0.000180795538
 76       0.001763843735
 Sym=     1a
 Ene= -4.76238809677342E-01
 Spin= Alpha
 Occup= 2.000000
  1      -0.002658851249
  2       0.007837883837
  3      -0.009698983605
  4      -0.000000000000
  5       0.254383129961
  6       0.009220476479
  7      -0.000000000000
  8       0.149147391383
  9       0.008462924758
 10      -0.000102726221
 11      -0.000000000000
 12      -0.026315407847
 13       0.000954017818
 14      -0.000000000000
 15      -0.002658851249
 16       0.007837883837
 17      -0.009698983605
 18      -0.000000000000
 19      -0.254383129961
 20       0.009220476479
 21       0.000000000000
 22      -0.149147391383
 23       0.008462924758
 24      -0.000102726221
 25       0.000000000000
 26       0.026315407847
 27       0.000954017818
 28      -0.000000000000
 29       0.002756461537
 30       0.005588460122
 31       0.013422686814
 32      -0.000000000000
 33       0.342412344777
 34      -0.008054144278
 35       0.000000000000
 36       0.224598923079
 37      -0.001965310033
 38      -0.000125120474
 39       0.000000000000
 40       0.020723540744
 41       0.000218033391
 42       0.000000000000
 43       0.002756461537
 44       0.005588460122
 45       0.013422686814
 46       0.000000000000
 47      -0.342412344777
 48      -0.008054144278
 49      -0.000000000000
 50      -0.224598923079
 51      -0.001965310033
 52      -0.000125120474
 53       0.000000000000
 54      -0.020723540744
 55       0.000218033391
 56       0.000000000000
 57       0.006788725702
 58       0.001687731584
 59       0.000320596941
 60       0.005113760955
 61      -0.000288563643
 62       0.006788725702
 63       0.001687731584
 64       0.000320596941
 65      -0.005113760955
 66      -0.000288563643
 67       0.006788725702
 68       0.001687731584
 69      -0.000320596941
 70       0.005113760955
 71      -0.000288563643
 72       0.006788725702
 73       0.001687731584
 74      -0.000320596941
 75      -0.005113760955
 76      -0.000288563643
 Sym=     1a
 Ene= -4.59480659902506E-01
 Spin= Alpha
 Occup= 2.000000
  1      -0.001794591293
  2       0.005891228058
  3      -0.013137340585
  4       0.000000000000
  5      -0.261246414348
  6       0.008818579687
  7      -0.000000000000
  8      -0.144269405332
  9       0.013222945540
 10      -0.000467332149
 11      -0.000000000000