[Molden Format]
[Atoms] (Angs)
  N      1    7      0.00000000     -0.00000000      1.11738466
  H      2    1      0.00000000     -0.00000000      2.12136066
  C      3    6      1.12201016     -0.00000000      0.33463977
  H      4    1      2.10556415     -0.00000000      0.76898420
  C      5    6     -1.12201016      0.00000000      0.33463977
  H      6    1     -2.10556415      0.00000000      0.76898420
  C      7    6     -0.70797599     -0.00000000     -0.98428136
  H      8    1     -1.35674211      0.00000000     -1.84266130
  C      9    6      0.70797599      0.00000000     -0.98428136
  H     10    1      1.35674211      0.00000000     -1.84266130
[GTO]
1    0
S    7    1.000000
   9.04600000E+03    7.00000000E-04 
   1.35700000E+03    5.38983000E-03 
   3.09300000E+02    2.74060000E-02 
   8.77300000E+01    1.03262320E-01 
   2.85600000E+01    2.78905240E-01 
   1.02100000E+01    4.50217400E-01 
   3.83800000E+00    2.79943000E-01 
S    7    1.000000
   9.04600000E+03    5.00000000E-08 
   1.35700000E+03   -2.97600000E-05 
   8.77300000E+01   -1.97900000E-03 
   2.85600000E+01   -6.51949000E-03 
   1.02100000E+01   -6.00100000E-02 
   3.83800000E+00   -6.09975300E-02 
   7.46600000E-01    5.52378750E-01 
S    1    1.000000
   2.24800000E-01    1.00000000E+00 
P    3    1.000000
   1.35500000E+01    3.99190000E-02 
   2.91700000E+00    2.17169000E-01 
   7.97300000E-01    5.10319000E-01 
P    1    1.000000
   2.18500000E-01    1.00000000E+00 
D    1    1.000000
   8.17000000E-01    1.00000000E+00 

2    0
S    3    1.000000
   1.30100000E+01    1.96850000E-02 
   1.96200000E+00    1.37977000E-01 
   4.44600000E-01    4.78148000E-01 
S    1    1.000000
   1.22000000E-01    1.00000000E+00 
P    1    1.000000
   7.27000000E-01    1.00000000E+00 

3    0
S    7    1.000000
   6.66500000E+03    6.91990000E-04 
   1.00000000E+03    5.32976000E-03 
   2.28000000E+02    2.70770000E-02 
   6.47100000E+01    1.01768130E-01 
   2.10600000E+01    2.74902850E-01 
   7.49500000E+00    4.50094590E-01 
   2.79700000E+00    2.86933450E-01 
S    7    1.000000
   6.66500000E+03    3.10000000E-07 
   1.00000000E+03   -2.72700000E-05 
   6.47100000E+01   -1.80535000E-03 
   2.10600000E+01   -5.86561000E-03 
   7.49500000E+00   -5.51393100E-02 
   2.79700000E+00   -6.69876600E-02 
   5.21500000E-01    5.47743760E-01 
S    1    1.000000
   1.59600000E-01    1.00000000E+00 
P    3    1.000000
   9.43900000E+00    3.81090000E-02 
   2.00200000E+00    2.09480000E-01 
   5.45600000E-01    5.08557000E-01 
P    1    1.000000
   1.51700000E-01    1.00000000E+00 
D    1    1.000000
   5.50000000E-01    1.00000000E+00 

4    0
S    3    1.000000
   1.30100000E+01    1.96850000E-02 
   1.96200000E+00    1.37977000E-01 
   4.44600000E-01    4.78148000E-01 
S    1    1.000000
   1.22000000E-01    1.00000000E+00 
P    1    1.000000
   7.27000000E-01    1.00000000E+00 

5    0
S    7    1.000000
   6.66500000E+03    6.91990000E-04 
   1.00000000E+03    5.32976000E-03 
   2.28000000E+02    2.70770000E-02 
   6.47100000E+01    1.01768130E-01 
   2.10600000E+01    2.74902850E-01 
   7.49500000E+00    4.50094590E-01 
   2.79700000E+00    2.86933450E-01 
S    7    1.000000
   6.66500000E+03    3.10000000E-07 
   1.00000000E+03   -2.72700000E-05 
   6.47100000E+01   -1.80535000E-03 
   2.10600000E+01   -5.86561000E-03 
   7.49500000E+00   -5.51393100E-02 
   2.79700000E+00   -6.69876600E-02 
   5.21500000E-01    5.47743760E-01 
S    1    1.000000
   1.59600000E-01    1.00000000E+00 
P    3    1.000000
   9.43900000E+00    3.81090000E-02 
   2.00200000E+00    2.09480000E-01 
   5.45600000E-01    5.08557000E-01 
P    1    1.000000
   1.51700000E-01    1.00000000E+00 
D    1    1.000000
   5.50000000E-01    1.00000000E+00 

6    0
S    3    1.000000
   1.30100000E+01    1.96850000E-02 
   1.96200000E+00    1.37977000E-01 
   4.44600000E-01    4.78148000E-01 
S    1    1.000000
   1.22000000E-01    1.00000000E+00 
P    1    1.000000
   7.27000000E-01    1.00000000E+00 

7    0
S    7    1.000000
   6.66500000E+03    6.91990000E-04 
   1.00000000E+03    5.32976000E-03 
   2.28000000E+02    2.70770000E-02 
   6.47100000E+01    1.01768130E-01 
   2.10600000E+01    2.74902850E-01 
   7.49500000E+00    4.50094590E-01 
   2.79700000E+00    2.86933450E-01 
S    7    1.000000
   6.66500000E+03    3.10000000E-07 
   1.00000000E+03   -2.72700000E-05 
   6.47100000E+01   -1.80535000E-03 
   2.10600000E+01   -5.86561000E-03 
   7.49500000E+00   -5.51393100E-02 
   2.79700000E+00   -6.69876600E-02 
   5.21500000E-01    5.47743760E-01 
S    1    1.000000
   1.59600000E-01    1.00000000E+00 
P    3    1.000000
   9.43900000E+00    3.81090000E-02 
   2.00200000E+00    2.09480000E-01 
   5.45600000E-01    5.08557000E-01 
P    1    1.000000
   1.51700000E-01    1.00000000E+00 
D    1    1.000000
   5.50000000E-01    1.00000000E+00 

8    0
S    3    1.000000
   1.30100000E+01    1.96850000E-02 
   1.96200000E+00    1.37977000E-01 
   4.44600000E-01    4.78148000E-01 
S    1    1.000000
   1.22000000E-01    1.00000000E+00 
P    1    1.000000
   7.27000000E-01    1.00000000E+00 

9    0
S    7    1.000000
   6.66500000E+03    6.91990000E-04 
   1.00000000E+03    5.32976000E-03 
   2.28000000E+02    2.70770000E-02 
   6.47100000E+01    1.01768130E-01 
   2.10600000E+01    2.74902850E-01 
   7.49500000E+00    4.50094590E-01 
   2.79700000E+00    2.86933450E-01 
S    7    1.000000
   6.66500000E+03    3.10000000E-07 
   1.00000000E+03   -2.72700000E-05 
   6.47100000E+01   -1.80535000E-03 
   2.10600000E+01   -5.86561000E-03 
   7.49500000E+00   -5.51393100E-02 
   2.79700000E+00   -6.69876600E-02 
   5.21500000E-01    5.47743760E-01 
S    1    1.000000
   1.59600000E-01    1.00000000E+00 
P    3    1.000000
   9.43900000E+00    3.81090000E-02 
   2.00200000E+00    2.09480000E-01 
   5.45600000E-01    5.08557000E-01 
P    1    1.000000
   1.51700000E-01    1.00000000E+00 
D    1    1.000000
   5.50000000E-01    1.00000000E+00 

10    0
S    3    1.000000
   1.30100000E+01    1.96850000E-02 
   1.96200000E+00    1.37977000E-01 
   4.44600000E-01    4.78148000E-01 
S    1    1.000000
   1.22000000E-01    1.00000000E+00 
P    1    1.000000
   7.27000000E-01    1.00000000E+00 

[MO]
Sym=X
Ene= -15.606551
Spin=Alpha
Occup=1
     1    9.974157484369e-01
     2    1.745093034529e-02
     3   -8.651080195347e-03
     4   -6.434506959641e-16
     5    2.954581939870e-16
     6    3.702896515887e-05
     7   -3.946334124554e-15
     8   -1.263643040138e-15
     9    2.368187725741e-03
    10    3.789299799205e-04
    11    5.619839141301e-16
    12    4.552014126959e-16
    13   -1.931528753094e-07
    14   -2.993700283553e-16
    15   -5.714970289355e-04
    16   -1.357491585204e-05
    17    1.964193171717e-16
    18   -3.568640831429e-17
    19    7.206966953413e-04
    20    6.273122708154e-05
    21    7.567748328521e-05
    22    3.037478733898e-03
    23   -1.022703101108e-04
    24   -6.885890744662e-17
    25    1.215925320227e-04
    26   -2.145482754970e-03
    27    3.881647787328e-16
    28    6.528336381181e-05
    29    3.925997734811e-05
    30    2.467331275345e-04
    31   -1.201352320701e-16
    32   -8.544521045478e-05
    33   -5.511727181772e-16
    34   -4.050081739834e-05
    35    5.264987609255e-04
    36    1.206885141453e-04
    37    5.739334689569e-16
    38   -1.162141120151e-04
    39    6.273122707765e-05
    40    7.567748328437e-05
    41    3.037478733875e-03
    42    1.022703101113e-04
    43   -5.379419344586e-16
    44    1.215925320233e-04
    45    2.145482754946e-03
    46    1.095677274929e-15
    47    6.528336381700e-05
    48    3.925997734761e-05
    49   -2.467331275348e-04
    50    3.561638729096e-16
    51   -8.544521045545e-05
    52   -1.236338802575e-16
    53   -4.050081739978e-05
    54    5.264987609173e-04
    55   -1.206885141451e-04
    56   -6.292211798771e-16
    57   -1.162141120149e-04
    58   -1.088427305400e-05
    59   -4.932725003518e-05
    60   -7.588778702926e-04
    61    7.884011430036e-05
    62   -2.356137333867e-16
    63   -1.301156908068e-04
    64   -4.907268856907e-04
    65   -7.011025568148e-16
    66   -7.283671414337e-04
    67    2.056952995780e-05
    68    7.113478836782e-05
    69    8.024341245051e-17
    70    8.503954645939e-05
    71   -3.769158782969e-16
    72   -1.549262456087e-04
    73   -2.613097616901e-04
    74   -1.821413109616e-05
    75    2.498410275574e-16
    76   -1.683136152748e-05
    77   -1.088427305656e-05
    78   -4.932725003236e-05
    79   -7.588778703473e-04
    80   -7.884011430140e-05
    81   -5.727924820926e-16
    82   -1.301156908063e-04
    83    4.907268857235e-04
    84    6.247182230318e-16
    85   -7.283671414554e-04
    86    2.056952995604e-05
    87   -7.113478836647e-05
    88   -4.977612361913e-17
    89    8.503954645666e-05
    90   -4.532577844624e-16
    91   -1.549262456089e-04
    92   -2.613097617019e-04
    93    1.821413109352e-05
    94    2.222605084336e-16
    95   -1.683136152660e-05
Sym=X
Ene= -11.251836
Spin=Alpha
Occup=1
     1   -4.855671884708e-14
     2    2.392678718072e-13
     3   -1.140491983635e-12
     4    2.369575628555e-04
     5    2.878299315378e-16
     6   -5.198617356691e-14
     7   -1.910434517990e-03
     8   -2.913403150381e-16
     9    7.811424467227e-13
    10   -1.085700154289e-13
    11    3.282448754951e-04
    12    1.305318204719e-16
    13   -1.201358826982e-13
    14   -1.768667193877e-16
    15   -4.660740455520e-14
    16   -1.231499467316e-13
    17    2.820196518566e-04
    18    7.190297261593e-17
    19   -7.763371068203e-14
    20    7.052244979138e-01
    21    1.278719021597e-02
    22   -5.243772978186e-03
    23   -3.633141706989e-04
    24   -3.107857022835e-17
    25    5.707752638065e-04
    26    5.959348837403e-04
    27    9.995418048291e-16
    28    2.259119231077e-03
    29    7.280535651898e-05
    30    2.697824949414e-04
    31   -3.371805918306e-17
    32    5.258805632828e-04
    33   -1.816630069045e-16
    34   -6.649924283095e-04
    35    3.196714865446e-04
    36    4.744434355000e-04
    37    3.981642562257e-18
    38    7.757776089567e-06
    39   -7.052244975779e-01
    40   -1.278719020996e-02
    41    5.243772977687e-03
    42   -3.633141704597e-04
    43   -1.485649836708e-16
    44   -5.707752634753e-04
    45    5.959348849496e-04
    46    4.970209726840e-16
    47   -2.259119231339e-03
    48   -7.280535655637e-05
    49    2.697824948213e-04
    50   -8.290771627026e-17
    51   -5.258805628589e-04
    52   -2.100351417320e-16
    53    6.649924280821e-04
    54   -3.196714857034e-04
    55    4.744434352411e-04
    56   -1.643828358286e-16
    57   -7.757776006419e-06
    58   -1.021414254501e-02
    59    7.285905017974e-05
    60   -1.767123182812e-03
    61    1.087479776784e-05
    62   -6.848604468592e-17
    63    4.158117398364e-05
    64    1.355171687732e-03
    65    1.232025149341e-16
    66   -1.753771799173e-03
    67    2.039766596427e-04
    68    3.651412540236e-04
    69   -9.900967356605e-17
    70    1.841726015647e-04
    71    1.547932567873e-16
    72   -2.217329947329e-04
    73   -1.604027836330e-04
    74   -1.690215129253e-04
    75    1.054852374665e-16
    76   -1.086287102286e-04
    77    1.021414254982e-02
    78   -7.285905013819e-05
    79    1.767123182461e-03
    80    1.087479771438e-05
    81    2.162925428048e-16
    82   -4.158117400461e-05
    83    1.355171687996e-03
    84   -4.282664322670e-16
    85    1.753771798908e-03
    86   -2.039766597734e-04
    87    3.651412541130e-04
    88   -1.138067095969e-16
    89   -1.841726016118e-04
    90    2.134197948717e-16
    91    2.217329947911e-04
    92    1.604027835790e-04
    93   -1.690215129814e-04
    94   -2.404315727040e-16
    95    1.086287102991e-04
Sym=X
Ene= -11.251796
Spin=Alpha
Occup=1
     1   -1.930823479595e-04
     2    1.028320568234e-03
     3   -4.926635173390e-03
     4   -5.657933135203e-14
     5    1.638586532429e-17
     6   -2.210804188693e-04
     7    4.574504989895e-13
     8    4.451755691958e-17
     9    3.355184408777e-03
    10   -4.591994625775e-04
    11   -7.838166210579e-14
    12   -2.347084084766e-17
    13   -5.043057408286e-04
    14   -1.780701742879e-17
    15   -1.984466541609e-04
    16   -5.300273399971e-04
    17   -6.739293003931e-14
    18    6.362963108281e-17
    19   -3.270255125514e-04
    20    7.051738091050e-01
    21    1.260137391004e-02
    22   -9.127602817119e-04
    23   -5.084535356290e-04
    24    3.453139196486e-17
    25    6.981033076277e-04
    26   -2.622733342330e-03
    27    3.496673853147e-16
    28   -6.029102139812e-04
    29   -7.414448729410e-05
    30    2.501803944390e-04
    31    2.327702765508e-16
    32    8.990075650977e-04
    33   -5.620637384589e-17
    34   -4.740412811753e-04
    35    1.799872725365e-03
    36    5.458707185448e-04
    37   -1.392932238039e-16
    38    1.766127716191e-04
    39    7.051738094409e-01
    40    1.260137391613e-02
    41   -9.127602841909e-04
    42    5.084535358010e-04
    43   -4.047933663770e-17
    44    6.981033078989e-04
    45    2.622733342051e-03
    46    2.125854507371e-16
    47   -6.029102129070e-04
    48   -7.414448726057e-05
    49   -2.501803945688e-04
    50   -1.468352235332e-16
    51    8.990075653494e-04
    52    2.102164590427e-16
    53   -4.740412814944e-04
    54    1.799872725518e-03
    55   -5.458707187730e-04
    56    7.040995552738e-17
    57    1.766127716239e-04
    58    1.019224213714e-02
    59    1.011408233543e-04
    60   -8.465367819057e-04
    61    1.171781797720e-04
    62    1.507719932938e-16
    63   -4.899394680809e-05
    64   -5.530081508506e-04
    65   -2.691256737328e-16
    66   -6.114672569899e-04
    67   -2.797691082079e-04
    68   -1.851253719294e-04
    69   -1.408913418328e-16
    70   -1.022991858073e-04
    71    1.323552231612e-16
    72    1.242549597756e-04
    73   -1.231343756659e-04
    74    1.172149505245e-04
    75    1.403838150799e-17
    76    1.514399105549e-04
    77    1.019224213239e-02
    78    1.011408233888e-04
    79   -8.465367827285e-04
    80   -1.171781797765e-04
    81   -4.718595607948e-17
    82   -4.899394679056e-05
    83    5.530081501971e-04
    84   -2.036157462906e-16
    85   -6.114672578080e-04
    86   -2.797691081099e-04
    87    1.851253717526e-04
    88    1.319949298600e-16
    89   -1.022991857203e-04
    90    9.082501767674e-17
    91    1.242549596680e-04
    92   -1.231343757344e-04
    93   -1.172149504432e-04
    94    5.452174158086e-17
    95    1.514399105022e-04
Sym=X
Ene= -11.208841
Spin=Alpha
Occup=1
     1    3.857252905801e-05
     2    2.476349153566e-04
     3   -1.554026884662e-03
     4   -1.506905494483e-16
     5    2.164537759187e-16
     6   -9.032774357647e-05
     7    8.931765917153e-15
     8   -8.457278612678e-16
     9    1.109045139864e-03
    10    1.478704285713e-04
    11    7.460124098330e-16
    12    7.559556961093e-17
    13   -4.653253883248e-05
    14   -7.312550760395e-17
    15   -2.432763645129e-04
    16   -1.850792730110e-04
    17   -1.272257039303e-15
    18    7.108496820878e-17
    19    6.558758339265e-05
    20   -1.045575337492e-02
    21   -4.526717974986e-04
    22    2.989853629903e-03
    23   -6.060468111517e-05
    24    1.931833290900e-17
    25    1.272619289613e-04
    26   -1.368483478578e-03
    27    5.880081786530e-16
    28   -1.302851150745e-03
    29   -9.173829496908e-05
    30   -2.353538632489e-04
    31    2.198913992284e-17
    32   -1.386446487246e-04
    33   -1.966505642498e-16
    34    1.930352468462e-04
    35    5.899501006652e-04
    36   -1.224598028596e-04
    37   -1.039535372732e-16
    38   -5.966379407598e-06
    39   -1.045575337520e-02
    40   -4.526717975082e-04
    41    2.989853629968e-03
    42    6.060468111465e-05
    43   -4.196016489099e-16
    44    1.272619289609e-04
    45    1.368483478606e-03
    46    6.254934591212e-16
    47   -1.302851150760e-03
    48   -9.173829496826e-05
    49    2.353538632561e-04
    50    1.845386364238e-16
    51   -1.386446487311e-04
    52    1.812364109816e-16
    53    1.930352468525e-04
    54    5.899501006710e-04
    55    1.224598028628e-04
    56   -1.702277867894e-16
    57   -5.966379409224e-06
    58    7.051323423883e-01
    59    1.282388245561e-02
    60   -5.659650451065e-03
    61   -2.308740599807e-05
    62   -1.577095230845e-16
    63   -3.390770690547e-05
    64    1.063689562486e-04
    65   -7.143286266439e-17
    66   -1.259205366968e-03
    67    3.305181789555e-04
    68    2.121149164381e-04
    69    3.822264422642e-16
    70    4.436377358684e-05
    71   -8.388965153197e-17
    72   -4.418194614401e-04
    73    7.083381393392e-04
    74   -2.760793160586e-04
    75    1.198047138902e-16
    76   -2.353252002997e-04
    77    7.051323423724e-01
    78    1.282388245532e-02
    79   -5.659650450856e-03
    80    2.308740599765e-05
    81    4.401351691580e-17
    82   -3.390770690719e-05
    83   -1.063689562993e-04
    84   -1.098766113761e-16
    85   -1.259205366929e-03
    86    3.305181789473e-04
    87   -2.121149164222e-04
    88   -1.198371931468e-16
    89    4.436377357409e-05
    90   -3.587892667713e-16
    91   -4.418194614216e-04
    92    7.083381393334e-04
    93    2.760793160523e-04
    94   -1.453798319722e-16
    95   -2.353252002879e-04
Sym=X
Ene= -11.207805
Spin=Alpha
Occup=1
     1    2.211879158022e-15
     2    1.837885312689e-15
     3   -1.381349461899e-14
     4    5.980517930745e-06
     5   -1.487507345039e-16
     6   -7.880523490711e-16
     7   -5.551661220150e-04
     8    7.172578840388e-16
     9    7.339127135880e-15
    10    6.892950836848e-16
    11   -5.884181523203e-05
    12   -6.003056284746e-17
    13    4.078633047619e-16
    14    5.294297937425e-17
    15    3.939990694812e-16
    16   -2.775401707501e-15
    17    9.486349776138e-05
    18   -9.649016802417e-17
    19    1.636535416731e-16
    20   -1.046808351457e-02
    21   -3.915246169015e-04
    22    2.402110575602e-03
    23    6.092809324121e-05
    24    8.461429421588e-18
    25   -1.220308969245e-05
    26   -9.699071715480e-04
    27   -9.512233227838e-16
    28   -6.010199760691e-04
    29   -1.852982210183e-05
    30   -3.192480804043e-04
    31    1.336033278368e-16
    32   -3.236120297718e-04
    33    4.584140535676e-17
    34    2.382296105713e-04
    35    2.569432639280e-04
    36   -1.573600116063e-04
    37    1.894924864623e-16
    38   -5.231703386161e-05
    39    1.046808351422e-02
    40    3.915246168891e-04
    41   -2.402110575543e-03
    42    6.092809324170e-05
    43    1.333341508102e-16
    44    1.220308969400e-05
    45   -9.699071715214e-04
    46    1.217814328860e-16
    47    6.010199760454e-04
    48    1.852982210001e-05
    49   -3.192480804003e-04
    50   -1.168699217574e-16
    51    3.236120297689e-04
    52   -2.383337911087e-17
    53   -2.382296105684e-04
    54   -2.569432639157e-04
    55   -1.573600116052e-04
    56    3.744863536157e-18
    57    5.231703386138e-05
    58   -7.053264508432e-01
    59   -1.320518336645e-02
    60    8.708201344303e-03
    61    1.453788376808e-06
    62    4.561292055971e-16
    63   -3.575101546913e-05
    64    2.123633234764e-03
    65   -1.086220558471e-15
    66    1.430060926217e-03
    67   -4.240178391331e-04
    68   -7.213777848709e-04
    69   -2.952844717577e-16
    70   -5.802349613564e-04
    71   -1.728820300179e-17
    72    8.133276071723e-04
    73   -2.378151553572e-04
    74    3.419097979173e-04
    75    1.367924355258e-17
    76    5.530232626455e-04
    77    7.053264508591e-01
    78    1.320518336674e-02
    79   -8.708201344419e-03
    80    1.453788377430e-06
    81   -4.586440509712e-17
    82    3.575101546580e-05
    83    2.123633234765e-03
    84    8.663647865496e-16
    85   -1.430060926243e-03
    86    4.240178391414e-04
    87   -7.213777848760e-04
    88    2.901935543672e-16
    89    5.802349613579e-04
    90    2.674824039036e-16
    91   -8.133276071829e-04
    92    2.378151553704e-04
    93    3.419097979248e-04
    94   -2.606492782638e-16
    95   -5.530232626509e-04
Sym=X
Ene= -1.289344
Spin=Alpha
Occup=1
     1   -1.663990877528e-01
     2    3.441606817123e-01
     3    3.123489634093e-01
     4   -1.767208883570e-15
     5    9.492168298515e-17
     6   -6.098518945384e-02
     7    3.604815014199e-14
     8   -2.595782275703e-16
     9   -6.358328889589e-02
    10    4.044964250689e-03
    11   -1.995203047916e-15
    12    1.983527722712e-17
    13    1.183394480393e-02
    14    6.519866378262e-17
    15    1.198474144970e-01
    16    9.183001532464e-03
    17   -3.307860170672e-15
    18    6.293880554724e-17
    19   -2.208529577220e-02
    20   -8.268916068412e-02
    21    1.628626612919e-01
    22    4.250368212460e-02
    23   -9.773220506933e-02
    24   -1.303805201482e-16
    25    2.922168348115e-02
    26    1.302891510910e-02
    27   -5.413861952872e-17
    28    1.787624688476e-02
    29    2.711499701397e-03
    30   -1.587310354137e-02
    31    3.686464569591e-17
    32    1.239514719339e-02
    33    5.904687784589e-17
    34    3.273864842829e-02
    35   -1.099066512870e-02
    36   -8.010415498403e-03
    37   -1.201055122877e-17
    38   -1.257308978254e-03
    39   -8.268916068413e-02
    40    1.628626612918e-01
    41    4.250368212486e-02
    42    9.773220506933e-02
    43    1.610218387555e-16
    44    2.922168348115e-02
    45   -1.302891510901e-02
    46    6.656612143183e-16
    47    1.787624688471e-02
    48    2.711499701404e-03
    49    1.587310354137e-02
    50   -1.536897880050e-16
    51    1.239514719340e-02
    52    1.644762042565e-16
    53    3.273864842828e-02
    54   -1.099066512870e-02
    55    8.010415498398e-03
    56    5.457966009100e-17
    57   -1.257308978252e-03
    58   -4.285060886969e-02
    59    8.646379255463e-02
    60    6.174986420950e-02
    61    2.091519979196e-02
    62    1.130114575916e-16
    63    4.988853822240e-02
    64    1.906436564375e-03
    65   -8.557146641415e-16
    66    1.592113401076e-02
    67    6.022089186283e-03
    68   -5.661800169317e-04
    69   -3.541081734412e-17
    70    2.872440419673e-03
    71    6.711716661914e-17
    72    1.214560020917e-02
    73   -2.884473860349e-07
    74    1.276456541407e-03
    75    1.337872998225e-16
    76    2.227253577428e-03
    77   -4.285060886969e-02
    78    8.646379255462e-02
    79    6.174986420973e-02
    80   -2.091519979196e-02
    81    1.162430616798e-16
    82    4.988853822240e-02
    83   -1.906436564414e-03
    84    3.922666221152e-16
    85    1.592113401088e-02
    86    6.022089186289e-03
    87    5.661800169269e-04
    88    5.609608847784e-18
    89    2.872440419679e-03
    90   -6.109004724585e-16
    91    1.214560020917e-02
    92   -2.884473581230e-07
    93   -1.276456541405e-03
    94    2.570056765893e-16
    95    2.227253577420e-03
Sym=X
Ene= -1.037870
Spin=Alpha
Occup=1
     1    9.258172258120e-02
     2   -1.986150526866e-01
     3   -1.701489531254e-01
     4    9.196744928108e-15
     5    9.025517617953e-17
     6   -9.729226886046e-02
     7   -9.509320414436e-15
     8    7.050110520703e-17
     9   -1.434933243031e-02
    10    1.761495935290e-03
    11   -2.002521412581e-16
    12   -5.677116734412e-17
    13   -1.771521611855e-03
    14   -1.250620894744e-18
    15   -1.596475562695e-01
    16   -1.228316114546e-02
    17    1.165083654553e-15
    18    5.474907814687e-17
    19    2.508712410793e-02
    20   -3.292263056810e-02
    21    7.403640233526e-02
    22    3.879076417225e-02
    23    6.136981079219e-04
    24    3.088974005798e-17
    25   -1.326606752540e-01
    26    1.239151729892e-02
    27   -6.050699283521e-16
    28   -3.704724937195e-02
    29    6.197694486580e-03
    30    2.294657180190e-02
    31   -3.603123623287e-17
    32   -5.778992075556e-04
    33   -2.724037906161e-17
    34    5.334040994638e-03
    35   -3.368017958617e-03
    36    1.156781925037e-03
    37    1.450826138583e-16
    38   -2.040743322022e-03
    39   -3.292263056809e-02
    40    7.403640233524e-02
    41    3.879076417217e-02
    42   -6.136981079212e-04
    43   -4.055272692290e-17
    44   -1.326606752540e-01
    45   -1.239151729898e-02
    46    4.477500298218e-16
    47   -3.704724937193e-02
    48    6.197694486577e-03
    49   -2.294657180190e-02
    50    1.114258804402e-16
    51   -5.778992075583e-04
    52   -4.391834997457e-17
    53    5.334040994625e-03
    54   -3.368017958647e-03
    55   -1.156781925038e-03
    56   -1.289732213432e-16
    57   -2.040743322021e-03
    58   -1.237123790637e-01
    59    2.439402692800e-01
    60    1.507378883763e-01
    61    6.794730405606e-02
    62    1.473822074552e-16
    63    3.988534347538e-02
    64    2.817837698018e-02
    65   -6.286908329448e-16
    66    1.666892016547e-02
    67   -1.605598852059e-03
    68   -2.183208526428e-03
    69    5.920365679383e-17
    70    1.537152165839e-02
    71    7.496587881145e-18
    72    8.319459216890e-02
    73    1.060549207585e-02
    74    8.691216637138e-03
    75    6.146536298877e-17
    76    9.129795535117e-03
    77   -1.237123790637e-01
    78    2.439402692800e-01
    79    1.507378883762e-01
    80   -6.794730405605e-02
    81   -1.925814256235e-16
    82    3.988534347538e-02
    83   -2.817837698013e-02
    84    2.715573539267e-16
    85    1.666892016542e-02
    86   -1.605598852059e-03
    87    2.183208526429e-03
    88   -2.193385612761e-16
    89    1.537152165839e-02
    90   -3.049200955177e-16
    91    8.319459216890e-02
    92    1.060549207583e-02
    93   -8.691216637139e-03
    94   -7.115857154028e-18
    95    9.129795535118e-03
Sym=X
Ene= -0.972715
Spin=Alpha
Occup=1
     1    6.539460271036e-15
     2   -1.554561600975e-14
     3   -2.662887271798e-14
     4   -2.100106651964e-01
     5   -6.513907694515e-17
     6   -9.013731601393e-15
     7   -1.027770776064e-01
     8    8.078159044248e-17
     9    5.293942367812e-15
    10   -3.607547203674e-16
    11    1.908064558698e-02
    12   -3.555848520254e-17
    13    3.434210381348e-17
    14    2.584948752131e-17
    15   -1.349013132104e-14
    16   -3.143047887927e-15
    17   -4.118390546772e-03
    18   -5.410960553943e-17
    19    1.685134779113e-15
    20    1.279240634230e-01
    21   -2.604423282263e-01
    22   -1.788011349460e-01
    23    1.962177578319e-02
    24    1.311595429822e-16
    25    1.407714392716e-02
    26    2.474878472530e-02
    27    1.405074502470e-16
    28    2.878385438164e-02
    29   -1.299944696264e-02
    30    3.863422962548e-03
    31   -1.311015642498e-16
    32   -4.784240407053e-03
    33    2.500516399334e-17
    34   -1.260854204418e-01
    35   -2.629598470737e-02
    36    1.529283064950e-02
    37   -3.314984785229e-17
    38    6.814122887856e-03
    39   -1.279240634230e-01
    40    2.604423282263e-01
    41    1.788011349460e-01
    42    1.962177578319e-02
    43   -1.364335487583e-16
    44   -1.407714392717e-02
    45    2.474878472533e-02
    46    4.043906535695e-17
    47   -2.878385438167e-02
    48    1.299944696264e-02
    49    3.863422962543e-03
    50    1.099156388041e-16
    51    4.784240407056e-03
    52    2.010994382922e-17
    53    1.260854204418e-01
    54    2.629598470737e-02
    55    1.529283064950e-02
    56    2.829333975569e-17
    57   -6.814122887855e-03
    58   -6.632455402404e-02
    59    1.308233262581e-01
    60    7.829101548961e-02
    61   -7.322275307096e-02
    62   -2.996020089689e-17
    63    7.537085078662e-02
    64   -9.593350270857e-03
    65    1.305600381939e-16
    66    2.286102705826e-02
    67    1.637730644138e-02
    68   -8.519886949959e-03
    69    1.157107482013e-16
    70   -4.651495392084e-03
    71    5.484712020497e-17
    72    6.003669495814e-02
    73    9.797423167697e-03
    74    2.520001196372e-03
    75   -3.838858576014e-17
    76    8.676785019934e-03
    77    6.632455402404e-02
    78   -1.308233262580e-01
    79   -7.829101548966e-02
    80   -7.322275307097e-02
    81    1.971218981880e-16
    82   -7.537085078661e-02
    83   -9.593350270861e-03
    84   -5.542162173832e-16
    85   -2.286102705828e-02
    86   -1.637730644138e-02
    87   -8.519886949959e-03
    88   -1.607214789205e-16
    89    4.651495392084e-03
    90    3.752273681457e-16
    91   -6.003669495814e-02
    92   -9.797423167704e-03
    93    2.520001196372e-03
    94    1.233431800201e-17
    95   -8.676785019932e-03
Sym=X
Ene= -0.789746
Spin=Alpha
Occup=1
     1   -3.816218407673e-02
     2    8.018866652893e-02
     3    8.478543332885e-02
     4   -7.317876773300e-15
     5   -1.304182672147e-16
     6    3.058531162029e-01
     7   -1.745120974811e-14
     8   -4.877736390654e-17
     9    1.101901954829e-01
    10    7.464938393750e-03
    11    1.311640683219e-15
    12   -1.239532766293e-17
    13   -7.675007690999e-03
    14    5.242326990133e-17
    15    2.848797687815e-01
    16    5.932044254011e-02
    17    1.272365459520e-15
    18    2.551642587239e-17
    19   -3.264736798196e-02
    20    6.844987677062e-02
    21   -1.509738547845e-01
    22   -1.216583048562e-01
    23    1.897142475349e-02
    24    7.433874986307e-17
    25   -1.814662520363e-03
    26    1.325457649522e-02
    27   -7.100587539967e-16
    28    1.261228223216e-02
    29    1.214027634686e-02
    30   -2.500286937755e-03
    31   -1.717254845519e-17
    32   -1.315090026981e-02
    33    2.840298098064e-17
    34   -8.009310629720e-02
    35   -2.071671435460e-02
    36    7.654686151833e-03
    37    1.114093909443e-16
    38    3.779596367685e-04
    39    6.844987677061e-02
    40   -1.509738547845e-01
    41   -1.216583048563e-01
    42   -1.897142475349e-02
    43   -2.237485108426e-16
    44   -1.814662520357e-03
    45   -1.325457649526e-02
    46    3.256374983239e-16