[Molden Format]
[Title]
                                                                                
[Atoms] AU
 n     1    7 0.00000000000000E+00 0.00000000000000E+00 0.30466253919654E+01
 c     2    6 -.21563967168482E+01 0.00000000000000E+00 0.17183671343255E+01
 c     3    6 -.22562007124136E+01 0.00000000000000E+00 -.91089764050601E+00
 c     4    6 0.00000000000000E+00 0.00000000000000E+00 -.22595668300221E+01
 c     5    6 0.22562007124136E+01 0.00000000000000E+00 -.91089764050601E+00
 c     6    6 0.21563967168482E+01 0.00000000000000E+00 0.17183671343255E+01
 h     7    1 -.38836063950923E+01 0.00000000000000E+00 0.28162186444495E+01
 h     8    1 -.40612330919372E+01 0.00000000000000E+00 -.18659123117463E+01
 h     9    1 0.00000000000000E+00 0.00000000000000E+00 -.43026102149886E+01
 h    10    1 0.40612330919372E+01 0.00000000000000E+00 -.18659123117463E+01
 h    11    1 0.38836063950923E+01 0.00000000000000E+00 0.28162186444495E+01
[GTO]
    1 0
 s    8 1.00
 0.90460000000000E+04 0.69961741342552E-03
 0.13570000000000E+04 0.53860546299287E-02
 0.30930000000000E+03 0.27391021189057E-01
 0.87730000000000E+02 0.10315059198201E+00
 0.28560000000000E+02 0.27857066331743E+00
 0.10210000000000E+02 0.44829484945412E+00
 0.38380000000000E+01 0.27808592839527E+00
 0.74660000000000E+00 0.15431561233271E-01
 s    8 1.00
 0.90460000000000E+04 -.30499009595337E-03
 0.13570000000000E+04 -.24080263785077E-02
 0.30930000000000E+03 -.11944448725180E-01
 0.87730000000000E+02 -.48925992909017E-01
 0.28560000000000E+02 -.13447272472496E+00
 0.10210000000000E+02 -.31511257770011E+00
 0.38380000000000E+01 -.24285783254964E+00
 0.74660000000000E+00 0.10943822068542E+01
 s    1 1.00
 0.22480000000000E+00 0.10000000000000E+01
 p    3 1.00
 0.13550000000000E+02 0.58905676772132E-01
 0.29170000000000E+01 0.32046110671427E+00
 0.79730000000000E+00 0.75304206179207E+00
 p    1 1.00
 0.21850000000000E+00 0.10000000000000E+01
 d    1 1.00
 0.81700000000000E+00 0.10000000000000E+01
 
    2 0
 s    8 1.00
 0.66650000000000E+04 0.69158396281299E-03
 0.10000000000000E+04 0.53257961529341E-02
 0.22800000000000E+03 0.27060721042034E-01
 0.64710000000000E+02 0.10165684614077E+00
 0.21060000000000E+02 0.27457482361740E+00
 0.74950000000000E+01 0.44829431892377E+00
 0.27970000000000E+01 0.28490261071525E+00
 0.52150000000000E+00 0.15194859206082E-01
 s    8 1.00
 0.66650000000000E+04 -.29326965268655E-03
 0.10000000000000E+04 -.23180354739745E-02
 0.22800000000000E+03 -.11499786038565E-01
 0.64710000000000E+02 -.46826727009787E-01
 0.21060000000000E+02 -.12846616875047E+00
 0.74950000000000E+01 -.30126627246289E+00
 0.27970000000000E+01 -.25563070233011E+00
 0.52150000000000E+00 0.10937933610120E+01
 s    1 1.00
 0.15960000000000E+00 0.10000000000000E+01
 p    3 1.00
 0.94390000000000E+01 0.56979251590039E-01
 0.20020000000000E+01 0.31320721150073E+00
 0.54560000000000E+00 0.76037674173753E+00
 p    1 1.00
 0.15170000000000E+00 0.10000000000000E+01
 d    1 1.00
 0.55000000000000E+00 0.10000000000000E+01
 
    3 0
 s    8 1.00
 0.66650000000000E+04 0.69158396281299E-03
 0.10000000000000E+04 0.53257961529341E-02
 0.22800000000000E+03 0.27060721042034E-01
 0.64710000000000E+02 0.10165684614077E+00
 0.21060000000000E+02 0.27457482361740E+00
 0.74950000000000E+01 0.44829431892377E+00
 0.27970000000000E+01 0.28490261071525E+00
 0.52150000000000E+00 0.15194859206082E-01
 s    8 1.00
 0.66650000000000E+04 -.29326965268655E-03
 0.10000000000000E+04 -.23180354739745E-02
 0.22800000000000E+03 -.11499786038565E-01
 0.64710000000000E+02 -.46826727009787E-01
 0.21060000000000E+02 -.12846616875047E+00
 0.74950000000000E+01 -.30126627246289E+00
 0.27970000000000E+01 -.25563070233011E+00
 0.52150000000000E+00 0.10937933610120E+01
 s    1 1.00
 0.15960000000000E+00 0.10000000000000E+01
 p    3 1.00
 0.94390000000000E+01 0.56979251590039E-01
 0.20020000000000E+01 0.31320721150073E+00
 0.54560000000000E+00 0.76037674173753E+00
 p    1 1.00
 0.15170000000000E+00 0.10000000000000E+01
 d    1 1.00
 0.55000000000000E+00 0.10000000000000E+01
 
    4 0
 s    8 1.00
 0.66650000000000E+04 0.69158396281299E-03
 0.10000000000000E+04 0.53257961529341E-02
 0.22800000000000E+03 0.27060721042034E-01
 0.64710000000000E+02 0.10165684614077E+00
 0.21060000000000E+02 0.27457482361740E+00
 0.74950000000000E+01 0.44829431892377E+00
 0.27970000000000E+01 0.28490261071525E+00
 0.52150000000000E+00 0.15194859206082E-01
 s    8 1.00
 0.66650000000000E+04 -.29326965268655E-03
 0.10000000000000E+04 -.23180354739745E-02
 0.22800000000000E+03 -.11499786038565E-01
 0.64710000000000E+02 -.46826727009787E-01
 0.21060000000000E+02 -.12846616875047E+00
 0.74950000000000E+01 -.30126627246289E+00
 0.27970000000000E+01 -.25563070233011E+00
 0.52150000000000E+00 0.10937933610120E+01
 s    1 1.00
 0.15960000000000E+00 0.10000000000000E+01
 p    3 1.00
 0.94390000000000E+01 0.56979251590039E-01
 0.20020000000000E+01 0.31320721150073E+00
 0.54560000000000E+00 0.76037674173753E+00
 p    1 1.00
 0.15170000000000E+00 0.10000000000000E+01
 d    1 1.00
 0.55000000000000E+00 0.10000000000000E+01
 
    5 0
 s    8 1.00
 0.66650000000000E+04 0.69158396281299E-03
 0.10000000000000E+04 0.53257961529341E-02
 0.22800000000000E+03 0.27060721042034E-01
 0.64710000000000E+02 0.10165684614077E+00
 0.21060000000000E+02 0.27457482361740E+00
 0.74950000000000E+01 0.44829431892377E+00
 0.27970000000000E+01 0.28490261071525E+00
 0.52150000000000E+00 0.15194859206082E-01
 s    8 1.00
 0.66650000000000E+04 -.29326965268655E-03
 0.10000000000000E+04 -.23180354739745E-02
 0.22800000000000E+03 -.11499786038565E-01
 0.64710000000000E+02 -.46826727009787E-01
 0.21060000000000E+02 -.12846616875047E+00
 0.74950000000000E+01 -.30126627246289E+00
 0.27970000000000E+01 -.25563070233011E+00
 0.52150000000000E+00 0.10937933610120E+01
 s    1 1.00
 0.15960000000000E+00 0.10000000000000E+01
 p    3 1.00
 0.94390000000000E+01 0.56979251590039E-01
 0.20020000000000E+01 0.31320721150073E+00
 0.54560000000000E+00 0.76037674173753E+00
 p    1 1.00
 0.15170000000000E+00 0.10000000000000E+01
 d    1 1.00
 0.55000000000000E+00 0.10000000000000E+01
 
    6 0
 s    8 1.00
 0.66650000000000E+04 0.69158396281299E-03
 0.10000000000000E+04 0.53257961529341E-02
 0.22800000000000E+03 0.27060721042034E-01
 0.64710000000000E+02 0.10165684614077E+00
 0.21060000000000E+02 0.27457482361740E+00
 0.74950000000000E+01 0.44829431892377E+00
 0.27970000000000E+01 0.28490261071525E+00
 0.52150000000000E+00 0.15194859206082E-01
 s    8 1.00
 0.66650000000000E+04 -.29326965268655E-03
 0.10000000000000E+04 -.23180354739745E-02
 0.22800000000000E+03 -.11499786038565E-01
 0.64710000000000E+02 -.46826727009787E-01
 0.21060000000000E+02 -.12846616875047E+00
 0.74950000000000E+01 -.30126627246289E+00
 0.27970000000000E+01 -.25563070233011E+00
 0.52150000000000E+00 0.10937933610120E+01
 s    1 1.00
 0.15960000000000E+00 0.10000000000000E+01
 p    3 1.00
 0.94390000000000E+01 0.56979251590039E-01
 0.20020000000000E+01 0.31320721150073E+00
 0.54560000000000E+00 0.76037674173753E+00
 p    1 1.00
 0.15170000000000E+00 0.10000000000000E+01
 d    1 1.00
 0.55000000000000E+00 0.10000000000000E+01
 
    7 0
 s    3 1.00
 0.13010000000000E+02 0.33498726389998E-01
 0.19620000000000E+01 0.23480080117413E+00
 0.44460000000000E+00 0.81368295788290E+00
 s    1 1.00
 0.12200000000000E+00 0.10000000000000E+01
 p    1 1.00
 0.72700000000000E+00 0.10000000000000E+01
 
    8 0
 s    3 1.00
 0.13010000000000E+02 0.33498726389998E-01
 0.19620000000000E+01 0.23480080117413E+00
 0.44460000000000E+00 0.81368295788290E+00
 s    1 1.00
 0.12200000000000E+00 0.10000000000000E+01
 p    1 1.00
 0.72700000000000E+00 0.10000000000000E+01
 
    9 0
 s    3 1.00
 0.13010000000000E+02 0.33498726389998E-01
 0.19620000000000E+01 0.23480080117413E+00
 0.44460000000000E+00 0.81368295788290E+00
 s    1 1.00
 0.12200000000000E+00 0.10000000000000E+01
 p    1 1.00
 0.72700000000000E+00 0.10000000000000E+01
 
   10 0
 s    3 1.00
 0.13010000000000E+02 0.33498726389998E-01
 0.19620000000000E+01 0.23480080117413E+00
 0.44460000000000E+00 0.81368295788290E+00
 s    1 1.00
 0.12200000000000E+00 0.10000000000000E+01
 p    1 1.00
 0.72700000000000E+00 0.10000000000000E+01
 
   11 0
 s    3 1.00
 0.13010000000000E+02 0.33498726389998E-01
 0.19620000000000E+01 0.23480080117413E+00
 0.44460000000000E+00 0.81368295788290E+00
 s    1 1.00
 0.12200000000000E+00 0.10000000000000E+01
 p    1 1.00
 0.72700000000000E+00 0.10000000000000E+01
 
[MO]
 Sym=    1a1  
 Ene= -.12553016154106E+01
 Spin= Alpha
 Occup= 2.000000
    1 -.15656683863928E-01
    2 0.31412531178707E+00
    3 0.30693378604433E+00
    4 0.00000000000000E+00
    5 0.00000000000000E+00
    6 -.10522764458596E+00
    7 0.00000000000000E+00
    8 0.00000000000000E+00
    9 -.47959479201964E-01
   10 0.55315192874779E-02
   11 -.75851082773121E-02
   12 0.20535889898342E-02
   13 0.00000000000000E+00
   14 0.00000000000000E+00
   15 0.00000000000000E+00
   16 -.12110295788698E-01
   17 0.18955223995153E+00
   18 0.54344583594016E-01
   19 0.10171963793985E+00
   20 0.00000000000000E+00
   21 0.20932618062657E-01
   22 -.60987349454641E-02
   23 0.00000000000000E+00
   24 0.34759826316758E-02
   25 0.79102113463608E-02
   26 -.63838467493223E-02
   27 -.15263645970385E-02
   28 0.00000000000000E+00
   29 0.90334699546409E-02
   30 0.00000000000000E+00
   31 -.71073773521522E-02
   32 0.91962274729628E-01
   33 0.83322412728222E-01
   34 0.30967040666230E-01
   35 0.00000000000000E+00
   36 0.36327879934152E-01
   37 0.32209949044602E-01
   38 0.00000000000000E+00
   39 0.15205588517302E-01
   40 -.10195402098133E-02
   41 -.35070156726236E-02
   42 0.45265558824369E-02
   43 0.00000000000000E+00
   44 0.86969600415570E-03
   45 0.00000000000000E+00
   46 -.24172288409875E-02
   47 0.80127121254657E-01
   48 -.12166025115056E-01
   49 0.00000000000000E+00
   50 0.00000000000000E+00
   51 0.36758503257953E-01
   52 0.00000000000000E+00
   53 0.00000000000000E+00
   54 -.22345564869425E-01
   55 0.18503371736025E-02
   56 -.19208223420739E-02
   57 0.70485168471350E-04
   58 0.00000000000000E+00
   59 0.00000000000000E+00
   60 0.00000000000000E+00
   61 -.71073773521522E-02
   62 0.91962274729628E-01
   63 0.83322412728222E-01
   64 -.30967040666230E-01
   65 0.00000000000000E+00
   66 0.36327879934152E-01
   67 -.32209949044602E-01
   68 0.00000000000000E+00
   69 0.15205588517302E-01
   70 -.10195402098133E-02
   71 -.35070156726236E-02
   72 0.45265558824369E-02
   73 0.00000000000000E+00
   74 -.86969600415570E-03
   75 0.00000000000000E+00
   76 -.12110295788698E-01
   77 0.18955223995153E+00
   78 0.54344583594016E-01
   79 -.10171963793985E+00
   80 0.00000000000000E+00
   81 0.20932618062657E-01
   82 0.60987349454641E-02
   83 0.00000000000000E+00
   84 0.34759826316758E-02
   85 0.79102113463608E-02
   86 -.63838467493223E-02
   87 -.15263645970385E-02
   88 0.00000000000000E+00
   89 -.90334699546409E-02
   90 0.00000000000000E+00
   91 0.42675312404122E-01
   92 -.36655582373620E-02
   93 0.90585041582145E-02
   94 0.00000000000000E+00
   95 -.24969683604773E-02
   96 0.19822080533440E-01
   97 0.80309178945073E-02
   98 0.21835272083699E-02
   99 0.00000000000000E+00
  100 0.24320658102540E-02
  101 0.14705874605605E-01
  102 -.81209401481523E-02
  103 0.00000000000000E+00
  104 0.00000000000000E+00
  105 0.35856850597155E-02
  106 0.19822080533440E-01
  107 0.80309178945073E-02
  108 -.21835272083699E-02
  109 0.00000000000000E+00
  110 0.24320658102540E-02
  111 0.42675312404122E-01
  112 -.36655582373620E-02
  113 -.90585041582145E-02
  114 0.00000000000000E+00
  115 -.24969683604773E-02
 Sym=    2a1  
 Ene= -.10887641736638E+01
 Spin= Alpha
 Occup= 2.000000
    1 0.56177130180287E-02
    2 -.18222740364461E+00
    3 -.16129491766236E+00
    4 0.00000000000000E+00
    5 0.00000000000000E+00
    6 0.22975787002148E-01
    7 0.00000000000000E+00
    8 0.00000000000000E+00
    9 0.51989342767210E-02
   10 -.36911763960630E-02
   11 0.25338820277205E-02
   12 0.11572943683425E-02
   13 0.00000000000000E+00
   14 0.00000000000000E+00
   15 0.00000000000000E+00
   16 0.18156231308675E-02
   17 -.62794515044194E-02
   18 -.72657387084845E-02
   19 -.54807650009103E-01
   20 0.00000000000000E+00
   21 -.10381028168115E+00
   22 -.19094043392587E-01
   23 0.00000000000000E+00
   24 -.13298576726948E-01
   25 -.83970658794146E-02
   26 0.68702076363777E-03
   27 0.77100451157769E-02
   28 0.00000000000000E+00
   29 -.74879992639335E-02
   30 0.00000000000000E+00
   31 -.14935807202049E-01
   32 0.19869036027579E+00
   33 0.12706102812146E+00
   34 0.75697268279462E-01
   35 0.00000000000000E+00
   36 -.32237381829041E-01
   37 0.22938117287041E-01
   38 0.00000000000000E+00
   39 -.65466924620375E-02
   40 0.59057640250584E-02
   41 -.52626826204286E-02
   42 -.64308140462988E-03
   43 0.00000000000000E+00
   44 -.78859009179651E-02
   45 0.00000000000000E+00
   46 -.19710524894394E-01
   47 0.27940382150206E+00
   48 0.16579498318244E+00
   49 0.00000000000000E+00
   50 0.00000000000000E+00
   51 0.68097180511738E-01
   52 0.00000000000000E+00
   53 0.00000000000000E+00
   54 0.24377448732036E-01
   55 0.83037246252461E-02
   56 -.73715881217919E-02
   57 -.93213650345421E-03
   58 0.00000000000000E+00
   59 0.00000000000000E+00
   60 0.00000000000000E+00
   61 -.14935807202049E-01
   62 0.19869036027579E+00
   63 0.12706102812146E+00
   64 -.75697268279462E-01
   65 0.00000000000000E+00
   66 -.32237381829041E-01
   67 -.22938117287041E-01
   68 0.00000000000000E+00
   69 -.65466924620375E-02
   70 0.59057640250584E-02
   71 -.52626826204286E-02
   72 -.64308140462988E-03
   73 0.00000000000000E+00
   74 0.78859009179651E-02
   75 0.00000000000000E+00
   76 0.18156231308675E-02
   77 -.62794515044194E-02
   78 -.72657387084845E-02
   79 0.54807650009103E-01
   80 0.00000000000000E+00
   81 -.10381028168115E+00
   82 0.19094043392587E-01
   83 0.00000000000000E+00
   84 -.13298576726948E-01
   85 -.83970658794146E-02
   86 0.68702076363777E-03
   87 0.77100451157769E-02
   88 0.00000000000000E+00
   89 0.74879992639335E-02
   90 0.00000000000000E+00
   91 -.90941475546442E-02
   92 -.49257754196068E-02
   93 -.30188141728912E-02
   94 0.00000000000000E+00
   95 -.21823245593902E-02
   96 0.66894768326961E-01
   97 0.45845443184709E-02
   98 0.10797661854314E-01
   99 0.00000000000000E+00
  100 0.30934279196604E-02
  101 0.96486963381131E-01
  102 0.83787006134784E-02
  103 0.00000000000000E+00
  104 0.00000000000000E+00
  105 0.15361358331564E-01
  106 0.66894768326961E-01
  107 0.45845443184709E-02
  108 -.10797661854314E-01
  109 0.00000000000000E+00
  110 0.30934279196604E-02
  111 -.90941475546442E-02
  112 -.49257754196068E-02
  113 0.30188141728912E-02
  114 0.00000000000000E+00
  115 -.21823245593902E-02
 Sym=    1b1  
 Ene= -.10324892744572E+01
 Spin= Alpha
 Occup= 2.000000
    1 0.00000000000000E+00
    2 0.00000000000000E+00
    3 0.00000000000000E+00
    4 -.13661923177450E+00
    5 0.00000000000000E+00
    6 0.00000000000000E+00
    7 -.63075465941303E-01
    8 0.00000000000000E+00
    9 0.00000000000000E+00
   10 0.00000000000000E+00
   11 0.00000000000000E+00
   12 0.00000000000000E+00
   13 0.00000000000000E+00
   14 0.10553124637147E-01
   15 0.00000000000000E+00
   16 -.13505767134765E-01
   17 0.22694883195421E+00
   18 0.14328508603348E+00
   19 -.10796909673307E-02
   20 0.00000000000000E+00
   21 -.53334450665733E-01
   22 0.99737743741683E-02
   23 0.00000000000000E+00
   24 -.40719767666761E-01
   25 -.29613266133785E-02
   26 -.54949356373381E-02
   27 0.84562622507166E-02
   28 0.00000000000000E+00
   29 0.34079639346411E-02
   30 0.00000000000000E+00
   31 -.15359504421934E-01
   32 0.20636585809061E+00
   33 0.11551596581164E+00
   34 -.25123974177144E-02
   35 0.00000000000000E+00
   36 0.65466310705951E-01
   37 0.83222063941358E-02
   38 0.00000000000000E+00
   39 0.19215549116017E-01
   40 -.40399618692279E-02
   41 -.45883283417435E-02
   42 0.86282902109714E-02
   43 0.00000000000000E+00
   44 -.93445118289940E-03
   45 0.00000000000000E+00
   46 0.00000000000000E+00
   47 0.00000000000000E+00
   48 0.00000000000000E+00
   49 -.11275096483855E+00
   50 0.00000000000000E+00
   51 0.00000000000000E+00
   52 -.36010924687775E-01
   53 0.00000000000000E+00
   54 0.00000000000000E+00
   55 0.00000000000000E+00
   56 0.00000000000000E+00
   57 0.00000000000000E+00
   58 0.00000000000000E+00
   59 -.10899013876264E-01
   60 0.00000000000000E+00
   61 0.15359504421934E-01
   62 -.20636585809061E+00
   63 -.11551596581164E+00
   64 -.25123974177144E-02
   65 0.00000000000000E+00
   66 -.65466310705951E-01
   67 0.83222063941358E-02
   68 0.00000000000000E+00
   69 -.19215549116017E-01
   70 0.40399618692279E-02
   71 0.45883283417435E-02
   72 -.86282902109714E-02
   73 0.00000000000000E+00
   74 -.93445118289940E-03
   75 0.00000000000000E+00
   76 0.13505767134765E-01
   77 -.22694883195421E+00
   78 -.14328508603348E+00
   79 -.10796909673307E-02
   80 0.00000000000000E+00
   81 0.53334450665733E-01
   82 0.99737743741683E-02
   83 0.00000000000000E+00
   84 0.40719767666761E-01
   85 0.29613266133785E-02
   86 0.54949356373381E-02
   87 -.84562622507166E-02
   88 0.00000000000000E+00
   89 0.34079639346411E-02
   90 0.00000000000000E+00
   91 0.94561092146074E-01
   92 0.16540784450218E-01
   93 0.10598112455410E-01
   94 0.00000000000000E+00
   95 -.84573760542021E-02
   96 0.87477160077972E-01
   97 0.98417425116682E-02
   98 0.10697003313906E-01
   99 0.00000000000000E+00
  100 0.76879142312239E-02
  101 0.00000000000000E+00
  102 0.00000000000000E+00
  103 -.30646495025524E-02
  104 0.00000000000000E+00
  105 0.00000000000000E+00
  106 -.87477160077972E-01
  107 -.98417425116682E-02
  108 0.10697003313906E-01
  109 0.00000000000000E+00
  110 -.76879142312239E-02
  111 -.94561092146074E-01
  112 -.16540784450218E-01
  113 0.10598112455410E-01
  114 0.00000000000000E+00
  115 0.84573760542021E-02
 Sym=    3a1  
 Ene= -.85742244324036E+00
 Spin= Alpha
 Occup= 2.000000
    1 -.74789006524708E-03
    2 0.15494154309903E+00
    3 0.15669418197793E+00
    4 0.00000000000000E+00
    5 0.00000000000000E+00
    6 0.88289629513654E-02
    7 0.00000000000000E+00
    8 0.00000000000000E+00
    9 0.13859704692465E-01
   10 0.17429221508666E-02
   11 -.27226419724698E-03
   12 -.14706579536196E-02
   13 0.00000000000000E+00
   14 0.00000000000000E+00
   15 0.00000000000000E+00
   16 0.55273305299213E-02
   17 -.14228626360720E+00
   18 -.85868261961600E-01
   19 0.12040051373571E+00
   20 0.00000000000000E+00
   21 0.12641051528964E+00
   22 0.30904373093595E-01
   23 0.00000000000000E+00
   24 0.24709013068701E-01
   25 0.62254979976200E-02
   26 0.11661205054867E-02
   27 -.73916185031066E-02
   28 0.00000000000000E+00
   29 0.34915166301807E-02
   30 0.00000000000000E+00
   31 0.56181379853273E-02
   32 -.88595262968257E-01
   33 -.96079129533990E-01
   34 0.10871346041303E+00
   35 0.00000000000000E+00
   36 -.16191718189368E+00
   37 0.17814890676064E-01
   38 0.00000000000000E+00
   39 -.61707468906788E-01
   40 0.66858418748856E-02
   41 0.11104851729613E-02
   42 -.77963270478469E-02
   43 0.00000000000000E+00
   44 -.40744762545444E-02
   45 0.00000000000000E+00
   46 -.12010626371759E-01
   47 0.22660194845139E+00
   48 0.18884881090730E+00
   49 0.00000000000000E+00
   50 0.00000000000000E+00
   51 -.62719054765247E-01
   52 0.00000000000000E+00
   53 0.00000000000000E+00
   54 0.15803848395128E-01
   55 0.39240936935879E-02
   56 -.30570370188808E-02
   57 -.86705667470703E-03
   58 0.00000000000000E+00
   59 0.00000000000000E+00
   60 0.00000000000000E+00
   61 0.56181379853273E-02
   62 -.88595262968257E-01
   63 -.96079129533990E-01
   64 -.10871346041303E+00
   65 0.00000000000000E+00
   66 -.16191718189368E+00
   67 -.17814890676064E-01
   68 0.00000000000000E+00
   69 -.61707468906788E-01
   70 0.66858418748856E-02
   71 0.11104851729613E-02
   72 -.77963270478469E-02
   73 0.00000000000000E+00
   74 0.40744762545444E-02
   75 0.00000000000000E+00
   76 0.55273305299213E-02
   77 -.14228626360720E+00
   78 -.85868261961600E-01
   79 -.12040051373571E+00
   80 0.00000000000000E+00
   81 0.12641051528964E+00
   82 -.30904373093595E-01
   83 0.00000000000000E+00
   84 0.24709013068701E-01
   85 0.62254979976200E-02
   86 0.11661205054867E-02
   87 -.73916185031066E-02
   88 0.00000000000000E+00
   89 -.34915166301807E-02
   90 0.00000000000000E+00
   91 -.99318154692095E-01
   92 -.11750028596168E-01
   93 -.79188656814122E-02
   94 0.00000000000000E+00
   95 0.95506930164743E-02
   96 -.64427217511708E-01
   97 -.14570679332165E-01
   98 -.52294503863542E-02
   99 0.00000000000000E+00
  100 -.65608367590159E-02
  101 0.17124001092729E+00
  102 0.35261262673131E-01
  103 0.00000000000000E+00
  104 0.00000000000000E+00
  105 0.19961443373040E-01
  106 -.64427217511708E-01
  107 -.14570679332165E-01
  108 0.52294503863542E-02
  109 0.00000000000000E+00
  110 -.65608367590159E-02
  111 -.99318154692095E-01
  112 -.11750028596168E-01
  113 0.79188656814122E-02
  114 0.00000000000000E+00
  115 0.95506930164743E-02
 Sym=    2b1  
 Ene= -.85361354701479E+00
 Spin= Alpha
 Occup= 2.000000
    1 0.00000000000000E+00
    2 0.00000000000000E+00
    3 0.00000000000000E+00
    4 -.24584467802888E+00
    5 0.00000000000000E+00
    6 0.00000000000000E+00
    7 -.10772628453014E+00
    8 0.00000000000000E+00
    9 0.00000000000000E+00
   10 0.00000000000000E+00
   11 0.00000000000000E+00
   12 0.00000000000000E+00
   13 0.00000000000000E+00
   14 0.11511808896705E-01
   15 0.00000000000000E+00
   16 -.64277873575576E-02
   17 0.16374612406583E+00
   18 0.14286028000337E+00
   19 0.33960669281611E-01
   20 0.00000000000000E+00
   21 0.14439260089771E+00
   22 0.22384216218365E-01
   23 0.00000000000000E+00
   24 -.12604822039699E-02
   25 0.51695632733732E-02
   26 -.29143089400867E-02
   27 -.22552543332866E-02
   28 0.00000000000000E+00
   29 0.60867018498063E-02
   30 0.00000000000000E+00
   31 0.10928688822460E-01
   32 -.17877199064893E+00
   33 -.16336919446665E+00
   34 -.54656276704125E-03
   35 0.00000000000000E+00
   36 0.88732316546859E-01
   37 -.15412724315563E-01
   38 0.00000000000000E+00
   39 -.34053544661454E-02
   40 -.26850244934903E-02
   41 0.24153491518487E-02
   42 0.26967534164157E-03
   43 0.00000000000000E+00
   44 0.38387152410263E-02
   45 0.00000000000000E+00
   46 0.00000000000000E+00
   47 0.00000000000000E+00
   48 0.00000000000000E+00
   49 0.19509169832490E+00
   50 0.00000000000000E+00
   51 0.00000000000000E+00
   52 0.69307220404727E-01
   53 0.00000000000000E+00
   54 0.00000000000000E+00
   55 0.00000000000000E+00
   56 0.00000000000000E+00
   57 0.00000000000000E+00
   58 0.00000000000000E+00
   59 0.94704241552508E-02
   60 0.00000000000000E+00
   61 -.10928688822460E-01
   62 0.17877199064893E+00
   63 0.16336919446665E+00
   64 -.54656276704125E-03
   65 0.00000000000000E+00
   66 -.88732316546859E-01
   67 -.15412724315563E-01
   68 0.00000000000000E+00
   69 0.34053544661454E-02
   70 0.26850244934903E-02
   71 -.24153491518487E-02
   72 -.26967534164157E-03
   73 0.00000000000000E+00
   74 0.38387152410263E-02
   75 0.00000000000000E+00
   76 0.64277873575576E-02
   77 -.16374612406583E+00
   78 -.14286028000337E+00
   79 0.33960669281611E-01
   80 0.00000000000000E+00
   81 -.14439260089771E+00
   82 0.22384216218365E-01
   83 0.00000000000000E+00
   84 0.12604822039699E-02
   85 -.51695632733732E-02
   86 0.29143089400867E-02
   87 0.22552543332866E-02
   88 0.00000000000000E+00
   89 0.60867018498063E-02
   90 0.00000000000000E+00
   91 0.12128196308709E+00
   92 0.30167264743795E-01
   93 0.12427975203485E-01
   94 0.00000000000000E+00
   95 -.55461045510531E-02
   96 -.13025874146216E+00
   97 -.28087597398011E-01
   98 -.14633831711456E-01
   99 0.00000000000000E+00
  100 -.54441576570321E-02
  101 0.00000000000000E+00
  102 0.00000000000000E+00
  103 0.35815066544169E-02
  104 0.00000000000000E+00
  105 0.00000000000000E+00
  106 0.13025874146216E+00
  107 0.28087597398011E-01
  108 -.14633831711456E-01
  109 0.00000000000000E+00
  110 0.54441576570321E-02
  111 -.12128196308709E+00
  112 -.30167264743795E-01
  113 0.12427975203485E-01
  114 0.00000000000000E+00
  115 0.55461045510531E-02
 Sym=    4a1  
 Ene= -.71879682036305E+00
 Spin= Alpha
 Occup= 2.000000
    1 0.37569915129708E-03
    2 0.37167421096017E-01
    3 0.55857559158714E-01
    4 0.00000000000000E+00
    5 0.00000000000000E+00
    6 0.13900719454227E+00
    7 0.00000000000000E+00
    8 0.00000000000000E+00
    9 0.79554523435073E-01
   10 0.64877035906320E-02
   11 0.19798493190408E-02
   12 -.84675529096728E-02
   13 0.00000000000000E+00
   14 0.00000000000000E+00
   15 0.00000000000000E+00
   16 -.41308957212126E-02
   17 0.36294192868357E-01
   18 0.69884013676759E-01
   19 -.16007485310038E+00
   20 0.00000000000000E+00
   21 0.13473764966332E+00
   22 -.46499413908373E-01
   23 0.00000000000000E+00
   24 0.30193621947812E-01
   25 -.19741713560616E-02
   26 0.20684697917535E-02
   27 -.94298435691950E-04
   28 0.00000000000000E+00
   29 0.23610276215244E-02
   30 0.00000000000000E+00
   31 -.16028739149443E-02
   32 -.15474667967046E-01
   33 -.21804764933262E-01
   34 -.14792636427313E+00
   35 0.00000000000000E+00
   36 -.91660566394089E-01
   37 -.61784818006239E-01
   38 0.00000000000000E+00
   39 -.41957618050470E-01
   40 -.25863752617324E-02
   41 0.97625308100036E-03
   42 0.16101221807320E-02
   43 0.00000000000000E+00
   44 -.33572820515211E-02
   45 0.00000000000000E+00
   46 -.54243657111730E-02
   47 0.40546224058386E-01
   48 0.76102084838893E-01
   49 0.00000000000000E+00
   50 0.00000000000000E+00
   51 -.23028220403433E+00
   52 0.00000000000000E+00
   53 0.00000000000000E+00
   54 -.61625046864483E-01
   55 0.85211568615758E-03
   56 0.61975015570128E-03
   57 -.14718658418589E-02
   58 0.00000000000000E+00
   59 0.00000000000000E+00
   60 0.00000000000000E+00
   61 -.16028739149443E-02
   62 -.15474667967046E-01
   63 -.21804764933262E-01
   64 0.14792636427313E+00
   65 0.00000000000000E+00
   66 -.91660566394089E-01
   67 0.61784818006239E-01
   68 0.00000000000000E+00
   69 -.41957618050470E-01
   70 -.25863752617324E-02
   71 0.97625308100036E-03
   72 0.16101221807320E-02
   73 0.00000000000000E+00
   74 0.33572820515211E-02
   75 0.00000000000000E+00
   76 -.41308957212126E-02
   77 0.36294192868357E-01
   78 0.69884013676759E-01
   79 0.16007485310038E+00
   80 0.00000000000000E+00
   81 0.13473764966332E+00
   82 0.46499413908373E-01
   83 0.00000000000000E+00
   84 0.30193621947812E-01
   85 -.19741713560616E-02
   86 0.20684697917535E-02
   87 -.94298435691950E-04
   88 0.00000000000000E+00
   89 -.23610276215244E-02
   90 0.00000000000000E+00
   91 0.17456259785608E+00
   92 0.43757930957081E-01
   93 0.13466186135570E-01
   94 0.00000000000000E+00
   95 -.88673612459033E-02
   96 0.11859039396829E+00
   97 0.22321109356688E-01
   98 0.90075877965540E-02
   99 0.00000000000000E+00
  100 0.49403015178351E-02
  101 0.20090383131228E+00
  102 0.52449774930956E-01
  103 0.00000000000000E+00
  104 0.00000000000000E+00
  105 0.17374038667061E-01
  106 0.11859039396829E+00
  107 0.22321109356688E-01
  108 -.90075877965540E-02
  109 0.00000000000000E+00
  110 0.49403015178351E-02
  111 0.17456259785608E+00
  112 0.43757930957081E-01
  113 -.13466186135570E-01
  114 0.00000000000000E+00
  115 -.88673612459033E-02
 Sym=    3b1  
 Ene= -.65678777714697E+00
 Spin= Alpha
 Occup= 2.000000
    1 0.00000000000000E+00
    2 0.00000000000000E+00
    3 0.00000000000000E+00
    4 0.28489992666276E+00
    5 0.00000000000000E+00
    6 0.00000000000000E+00
    7 0.13607906400058E+00
    8 0.00000000000000E+00
    9 0.00000000000000E+00
   10 0.00000000000000E+00
   11 0.00000000000000E+00
   12 0.00000000000000E+00
   13 0.00000000000000E+00
   14 -.10483513032191E-01
   15 0.00000000000000E+00
   16 -.15214353585490E-02
   17 0.25317321262967E-01
   18 0.18943584032468E-01
   19 -.17030830257897E+00
   20 0.00000000000000E+00
   21 -.22124837236740E+00
   22 -.45894572318211E-01
   23 0.00000000000000E+00
   24 -.50015709978678E-01
   25 -.42888041882550E-02
   26 0.13448609822943E-02
   27 0.29439432059607E-02
   28 0.00000000000000E+00
   29 -.70674382652944E-02
   30 0.00000000000000E+00
   31 0.71962465308561E-03
   32 -.16472852029957E-01
   33 -.62086718787983E-02
   34 -.10514310814294E+00
   35 0.00000000000000E+00
   36 0.24477309628593E+00
   37 -.42528459757923E-01
   38 0.00000000000000E+00
   39 0.95447979940860E-01
   40 -.52394831014041E-02
   41 -.16374710375972E-03
   42 0.54032302051638E-02
   43 0.00000000000000E+00
   44 0.22998388179957E-02
   45 0.00000000000000E+00
   46 0.00000000000000E+00
   47 0.00000000000000E+00
   48 0.00000000000000E+00
   49 0.26944769086959E+00
   50 0.00000000000000E+00
   51 0.00000000000000E+00
   52 0.81085019682832E-01
   53 0.00000000000000E+00
   54 0.00000000000000E+00
   55 0.00000000000000E+00
   56 0.00000000000000E+00
   57 0.00000000000000E+00
   58 0.00000000000000E+00
   59 0.56209140414344E-02
   60 0.00000000000000E+00
   61 -.71962465308561E-03
   62 0.16472852029957E-01
   63 0.62086718787983E-02
   64 -.10514310814294E+00
   65 0.00000000000000E+00
   66 -.24477309628593E+00
   67 -.42528459757923E-01
   68 0.00000000000000E+00
   69 -.95447979940860E-01
   70 0.52394831014041E-02
   71 0.16374710375972E-03
   72 -.54032302051638E-02
   73 0.00000000000000E+00
   74 0.22998388179957E-02
   75 0.00000000000000E+00
   76 0.15214353585490E-02
   77 -.25317321262967E-01
   78 -.18943584032468E-01
   79 -.17030830257897E+00
   80 0.00000000000000E+00
   81 0.22124837236740E+00
   82 -.45894572318211E-01
   83 0.00000000000000E+00
   84 0.50015709978678E-01
   85 0.42888041882550E-02
   86 -.13448609822943E-02
   87 -.29439432059607E-02