[Molden Format]
[Title]
                                                                                
[Atoms] AU
 c     1    6 0.33070207187257E+01 0.00000000000000E+00 0.11191877907914E+01
 c     2    6 -.33070207187257E+01 0.00000000000000E+00 0.11191877907914E+01
 o     3    8 0.33070207187257E+01 0.00000000000000E+00 -.11250941112178E+01
 o     4    8 -.33070207187257E+01 0.00000000000000E+00 -.11250941112178E+01
 h     5    1 0.33070207187257E+01 0.17478093261700E+01 0.22123540397044E+01
 h     6    1 -.33070207187257E+01 0.17478093261700E+01 0.22123540397044E+01
 h     7    1 0.33070207187257E+01 -.17478093261700E+01 0.22123540397044E+01
 h     8    1 -.33070207187257E+01 -.17478093261700E+01 0.22123540397044E+01
[GTO]
    1 0
 s    5 1.00
 0.12384016938000E+04 0.55173650481097E-02
 0.18629004992000E+03 0.41088828555946E-01
 0.42251176346000E+02 0.18225382126490E+00
 0.11676557932000E+02 0.46828459437429E+00
 0.35930506482000E+01 0.44575817336002E+00
 s    1 1.00
 0.40245147363000E+00 0.10000000000000E+01
 s    1 1.00
 0.13090182668000E+00 0.10000000000000E+01
 p    3 1.00
 0.94680970621000E+01 0.56888332011037E-01
 0.20103545142000E+01 0.31294059336471E+00
 0.54771004707000E+00 0.76065016509135E+00
 p    1 1.00
 0.15268613795000E+00 0.10000000000000E+01
 d    1 1.00
 0.80000000000000E+00 0.10000000000000E+01
 
    2 0
 s    5 1.00
 0.12384016938000E+04 0.55173650481097E-02
 0.18629004992000E+03 0.41088828555946E-01
 0.42251176346000E+02 0.18225382126490E+00
 0.11676557932000E+02 0.46828459437429E+00
 0.35930506482000E+01 0.44575817336002E+00
 s    1 1.00
 0.40245147363000E+00 0.10000000000000E+01
 s    1 1.00
 0.13090182668000E+00 0.10000000000000E+01
 p    3 1.00
 0.94680970621000E+01 0.56888332011037E-01
 0.20103545142000E+01 0.31294059336471E+00
 0.54771004707000E+00 0.76065016509135E+00
 p    1 1.00
 0.15268613795000E+00 0.10000000000000E+01
 d    1 1.00
 0.80000000000000E+00 0.10000000000000E+01
 
    3 0
 s    5 1.00
 0.22661767785000E+04 -.53893503921743E-02
 0.34087010191000E+03 -.40234721388960E-01
 0.77363135167000E+02 -.18008184205526E+00
 0.21479644940000E+02 -.46828857657651E+00
 0.66589433124000E+01 -.44692617160187E+00
 s    1 1.00
 0.80975975668000E+00 0.10000000000000E+01
 s    1 1.00
 0.25530772234000E+00 0.10000000000000E+01
 p    3 1.00
 0.17721504317000E+02 0.62630248763161E-01
 0.38635505440000E+01 0.33331138482352E+00
 0.10480920883000E+01 0.74148638308122E+00
 p    1 1.00
 0.27641544411000E+00 0.10000000000000E+01
 d    1 1.00
 0.12000000000000E+01 0.10000000000000E+01
 
    4 0
 s    5 1.00
 0.22661767785000E+04 -.53893503921743E-02
 0.34087010191000E+03 -.40234721388960E-01
 0.77363135167000E+02 -.18008184205526E+00
 0.21479644940000E+02 -.46828857657651E+00
 0.66589433124000E+01 -.44692617160187E+00
 s    1 1.00
 0.80975975668000E+00 0.10000000000000E+01
 s    1 1.00
 0.25530772234000E+00 0.10000000000000E+01
 p    3 1.00
 0.17721504317000E+02 0.62630248763161E-01
 0.38635505440000E+01 0.33331138482352E+00
 0.10480920883000E+01 0.74148638308122E+00
 p    1 1.00
 0.27641544411000E+00 0.10000000000000E+01
 d    1 1.00
 0.12000000000000E+01 0.10000000000000E+01
 
    5 0
 s    3 1.00
 0.13010701000000E+02 0.33485484812989E-01
 0.19622572000000E+01 0.23472187088125E+00
 0.44453796000000E+00 0.81377028525955E+00
 s    1 1.00
 0.12194962000000E+00 0.10000000000000E+01
 
    6 0
 s    3 1.00
 0.13010701000000E+02 0.33485484812989E-01
 0.19622572000000E+01 0.23472187088125E+00
 0.44453796000000E+00 0.81377028525955E+00
 s    1 1.00
 0.12194962000000E+00 0.10000000000000E+01
 
    7 0
 s    3 1.00
 0.13010701000000E+02 0.33485484812989E-01
 0.19622572000000E+01 0.23472187088125E+00
 0.44453796000000E+00 0.81377028525955E+00
 s    1 1.00
 0.12194962000000E+00 0.10000000000000E+01
 
    8 0
 s    3 1.00
 0.13010701000000E+02 0.33485484812989E-01
 0.19622572000000E+01 0.23472187088125E+00
 0.44453796000000E+00 0.81377028525955E+00
 s    1 1.00
 0.12194962000000E+00 0.10000000000000E+01
 
[MO]
 Sym= X
 Ene= -0.454557
 Spin= Alpha
 Occup= -0.454557
         1    0.00000
         2   -0.00000
         3   -0.00000
         4   -0.00000
         5   -0.14374
         6   -0.00000
         7   -0.00000
         8   -0.03306
         9    0.00000
        10    0.00000
        11   -0.00000
        12   -0.00000
        13   -0.00002
        14    0.00000
        15   -0.04581
        16    0.00000
        17    0.00000
        18   -0.00000
        19    0.00000
        20    0.14374
        21    0.00000
        22    0.00000
        23    0.03306
        24   -0.00000
        25    0.00000
        26   -0.00000
        27    0.00000
        28   -0.00002
        29   -0.00000
        30    0.04581
        31    0.00000
        32   -0.00000
        33    0.00000
        34   -0.00000
        35    0.38536
        36    0.00000
        37   -0.00000
        38    0.30376
        39    0.00000
        40   -0.00000
        41   -0.00000
        42   -0.00000
        43    0.00008
        44   -0.00000
        45    0.00910
        46    0.00000
        47   -0.00000
        48    0.00000
        49    0.00000
        50   -0.38536
        51    0.00000
        52    0.00000
        53   -0.30376
        54    0.00000
        55    0.00000
        56   -0.00000
        57   -0.00000
        58    0.00008
        59    0.00000
        60   -0.00910
        61   -0.18836
        62   -0.11812
        63    0.18836
        64    0.11812
        65    0.18836
        66    0.11812
        67   -0.18836
        68   -0.11812
 Sym= X
 Ene= -0.518105
 Spin= Alpha
 Occup= -0.518105
         1   -0.00000
         2    0.00000
         3   -0.00000
         4    0.00000
         5   -0.14106
         6    0.00000
         7    0.00000
         8   -0.02431
         9    0.00000
        10   -0.00000
        11    0.00000
        12   -0.00000
        13    0.00027
        14   -0.00000
        15   -0.04544
        16   -0.00000
        17   -0.00000
        18    0.00000
        19   -0.00000
        20   -0.14106
        21   -0.00000
        22   -0.00000
        23   -0.02431
        24    0.00000
        25   -0.00000
        26    0.00000
        27   -0.00000
        28   -0.00027
        29   -0.00000
        30   -0.04544
        31    0.00000
        32   -0.00000
        33    0.00000
        34    0.00000
        35    0.38558
        36    0.00000
        37    0.00000
        38    0.30275
        39    0.00000
        40   -0.00000
        41   -0.00000
        42    0.00000
        43    0.00010
        44    0.00000
        45    0.00918
        46   -0.00000
        47    0.00000
        48   -0.00000
        49   -0.00000
        50    0.38558
        51    0.00000
        52   -0.00000
        53    0.30275
        54   -0.00000
        55    0.00000
        56    0.00000
        57    0.00000
        58   -0.00010
        59   -0.00000
        60    0.00918
        61   -0.18701
        62   -0.12327
        63   -0.18701
        64   -0.12327
        65    0.18701
        66    0.12327
        67    0.18701
        68    0.12327
 Sym= X
 Ene= 0.518105
 Spin= Alpha
 Occup= 0.518105
         1    0.01899
         2   -0.00724
         3   -0.55174
         4   -0.31082
         5   -0.00000
         6   -0.03238
         7   -0.50949
         8   -0.00000
         9   -0.16028
        10   -0.00390
        11    0.00088
        12    0.00112
        13    0.00000
        14   -0.02440
        15    0.00000
        16   -0.01899
        17    0.00724
        18    0.55174
        19   -0.31082
        20    0.00000
        21    0.03238
        22   -0.50949
        23    0.00000
        24    0.16028
        25    0.00390
        26   -0.00088
        27   -0.00112
        28    0.00000
        29   -0.02440
        30    0.00000
        31    0.00318
        32    0.00670
        33    0.00834
        34    0.25830
        35    0.00000
        36    0.01424
        37    0.36624
        38    0.00000
        39    0.01114
        40   -0.00097
        41    0.00064
        42   -0.00029
        43   -0.00000
        44   -0.00376
        45   -0.00000
        46   -0.00318
        47   -0.00670
        48   -0.00834
        49    0.25830
        50   -0.00000
        51   -0.01424
        52    0.36624
        53   -0.00000
        54   -0.01114
        55    0.00097
        56   -0.00064
        57    0.00029
        58    0.00000
        59   -0.00376
        60   -0.00000
        61    0.03548
        62    0.36025
        63   -0.03548
        64   -0.36025
        65    0.03548
        66    0.36025
        67   -0.03548
        68   -0.36025
 Sym= X
 Ene= 0.454557
 Spin= Alpha
 Occup= 0.454557
         1    0.03408
         2   -0.03532
         3   -0.77639
         4    0.23233
         5   -0.00000
         6   -0.05838
         7    0.43311
         8   -0.00000
         9   -0.27758
        10   -0.00451
        11   -0.00069
        12    0.00063
        13   -0.00000
        14    0.02188
        15   -0.00000
        16    0.03408
        17   -0.03532
        18   -0.77639
        19   -0.23233
        20   -0.00000
        21   -0.05838
        22   -0.43311
        23   -0.00000
        24   -0.27758
        25   -0.00451
        26   -0.00069
        27    0.00063
        28   -0.00000
        29   -0.02188
        30   -0.00000
        31    0.00199
        32    0.00974
        33   -0.04528
        34   -0.23688
        35    0.00000
        36    0.01911
        37   -0.33544
        38    0.00000
        39    0.00073
        40   -0.00017
        41    0.00172
        42   -0.00009
        43   -0.00000
        44    0.00086
        45   -0.00000
        46    0.00199
        47    0.00974
        48   -0.04528
        49    0.23688
        50    0.00000
        51    0.01911
        52    0.33544
        53    0.00000
        54    0.00073
        55   -0.00017
        56    0.00172
        57   -0.00009
        58   -0.00000
        59   -0.00086
        60   -0.00000
        61    0.02312
        62    0.56421
        63    0.02312
        64    0.56421
        65    0.02312
        66    0.56421
        67    0.02312
        68    0.56421
