[Molden Format]
[Atoms] AU
  C     1    6     0.0000000000    1.1191877500    3.3070204300        
  C     2    6     0.0000000000    1.1191877500   -3.3070204300        
  O     3    8     0.0000000000   -1.1250939700    3.3070204300        
  O     4    8     0.0000000000   -1.1250939700   -3.3070204300        
  H     5    1     1.7478091600    2.2123537900    3.3070204300        
  H     6    1     1.7478091600    2.2123537900   -3.3070204300        
  H     7    1    -1.7478091600    2.2123537900    3.3070204300        
  H     8    1    -1.7478091600    2.2123537900   -3.3070204300        
[5D]
[7F]
[GTO]
  1  0
   s     6 1.00
  0.304752D+04  0.183470D-02
  0.457370D+03  0.140373D-01
  0.103949D+03  0.688426D-01
  0.292102D+02  0.232184D+00
  0.928666D+01  0.467941D+00
  0.316393D+01  0.362312D+00
   s     3 1.00
  0.786827D+01 -0.119332D+00
  0.188129D+01 -0.160854D+00
  0.544249D+00  0.114346D+01
   s     1 1.00
  0.168714D+00  0.100000D+01
   p     3 1.00
  0.786827D+01  0.689991D-01
  0.188129D+01  0.316424D+00
  0.544249D+00  0.744308D+00
   p     1 1.00
  0.168714D+00  0.100000D+01
  
  2  0
   s     6 1.00
  0.304752D+04  0.183470D-02
  0.457370D+03  0.140373D-01
  0.103949D+03  0.688426D-01
  0.292102D+02  0.232184D+00
  0.928666D+01  0.467941D+00
  0.316393D+01  0.362312D+00
   s     3 1.00
  0.786827D+01 -0.119332D+00
  0.188129D+01 -0.160854D+00
  0.544249D+00  0.114346D+01
   s     1 1.00
  0.168714D+00  0.100000D+01
   p     3 1.00
  0.786827D+01  0.689991D-01
  0.188129D+01  0.316424D+00
  0.544249D+00  0.744308D+00
   p     1 1.00
  0.168714D+00  0.100000D+01
  
  3  0
   s     6 1.00
  0.548467D+04  0.183110D-02
  0.825235D+03  0.139501D-01
  0.188047D+03  0.684451D-01
  0.529645D+02  0.232714D+00
  0.168976D+02  0.470193D+00
  0.579964D+01  0.358521D+00
   s     3 1.00
  0.155396D+02 -0.110778D+00
  0.359993D+01 -0.148026D+00
  0.101376D+01  0.113077D+01
   s     1 1.00
  0.270006D+00  0.100000D+01
   p     3 1.00
  0.155396D+02  0.708743D-01
  0.359993D+01  0.339753D+00
  0.101376D+01  0.727159D+00
   p     1 1.00
  0.270006D+00  0.100000D+01
  
  4  0
   s     6 1.00
  0.548467D+04  0.183110D-02
  0.825235D+03  0.139501D-01
  0.188047D+03  0.684451D-01
  0.529645D+02  0.232714D+00
  0.168976D+02  0.470193D+00
  0.579964D+01  0.358521D+00
   s     3 1.00
  0.155396D+02 -0.110778D+00
  0.359993D+01 -0.148026D+00
  0.101376D+01  0.113077D+01
   s     1 1.00
  0.270006D+00  0.100000D+01
   p     3 1.00
  0.155396D+02  0.708743D-01
  0.359993D+01  0.339753D+00
  0.101376D+01  0.727159D+00
   p     1 1.00
  0.270006D+00  0.100000D+01
  
  5  0
   s     3 1.00
  0.187311D+02  0.334946D-01
  0.282539D+01  0.234727D+00
  0.640122D+00  0.813757D+00
   s     1 1.00
  0.161278D+00  0.100000D+01
  
  6  0
   s     3 1.00
  0.187311D+02  0.334946D-01
  0.282539D+01  0.234727D+00
  0.640122D+00  0.813757D+00
   s     1 1.00
  0.161278D+00  0.100000D+01
  
  7  0
   s     3 1.00
  0.187311D+02  0.334946D-01
  0.282539D+01  0.234727D+00
  0.640122D+00  0.813757D+00
   s     1 1.00
  0.161278D+00  0.100000D+01
  
  8  0
   s     3 1.00
  0.187311D+02  0.334946D-01
  0.282539D+01  0.234727D+00
  0.640122D+00  0.813757D+00
   s     1 1.00
  0.161278D+00  0.100000D+01
  
[MO]
 Sym= __1_A'_
 Ene=  0.000000000000000E+000
 Spin= Alpha
 Occup=    2.00000000000000     
                     1  1.136395813963966E-004
                     2  9.001525905905394E-005
                     3  3.921077339858859E-003
                     4 -1.653007818045755E-013
                     5  4.336409696959841E-005
                     6 -2.950312229927450E-005
                     7 -1.975558100402405E-013
                     8 -2.529489721466983E-003
                     9  8.806064743898684E-005
                    10  1.136395813963966E-004
                    11  9.001525905905394E-005
                    12  3.921077339858859E-003
                    13 -1.653007818045755E-013
                    14  4.336409696959841E-005
                    15  2.950312229927450E-005
                    16 -1.975558100402405E-013
                    17 -2.529489721466983E-003
                    18 -8.806064743898684E-005
                    19  0.704153039972803     
                    20  1.611118189091038E-002
                    21 -8.131974394132695E-003
                    22 -8.819986568989104E-013
                    23  1.689734328222261E-003
                    24  3.442371137594219E-006
                    25  4.065843438429492E-013
                    26 -2.707724493367673E-003
                    27 -3.255259254554888E-006
                    28  0.704153039972803     
                    29  1.611118189091038E-002
                    30 -8.131974394132695E-003
                    31 -8.819986568989104E-013
                    32  1.689734328222261E-003
                    33 -3.442371137594219E-006
                    34  4.065843438429492E-013
                    35 -2.707724493367673E-003
                    36  3.255259254554888E-006
                    37 -1.523136428982151E-004
                    38  5.597348035332069E-005
                    39 -1.523136428982151E-004
                    40  5.597348035332069E-005
                    41 -1.523136434691237E-004
                    42  5.597347910688999E-005
                    43 -1.523136434691237E-004
                    44  5.597347910688999E-005
 Sym= __2_A'_
 Ene=  0.000000000000000E+000
 Spin= Alpha
 Occup=    2.00000000000000     
                     1  0.704266174496891     
                     2  1.727083474186415E-002
                     3 -6.030835720222529E-003
                     4 -2.687448758789794E-012
                     5 -1.328963071717996E-003
                     6  7.238066578543352E-005
                     7  2.939516407082429E-012
                     8 -9.414496190840756E-004
                     9 -1.937564469571466E-004
                    10  0.704266174496891     
                    11  1.727083474186415E-002
                    12 -6.030835720222529E-003
                    13 -2.687448758789794E-012
                    14 -1.328963071717996E-003
                    15 -7.238066578543352E-005
                    16  2.939516407082429E-012
                    17 -9.414496190840756E-004
                    18  1.937564469571466E-004
                    19 -2.920838375399543E-004
                    20  2.716441964243034E-004
                    21 -9.033428652014464E-004
                    22  2.962657555876157E-012
                    23  2.550582281839826E-004
                    24 -9.135636169557678E-007
                    25 -3.472202500841657E-013
                    26 -1.284966175986875E-003
                    27  3.350534607113431E-005
                    28 -2.920838375399543E-004
                    29  2.716441964243034E-004
                    30 -9.033428652014464E-004
                    31  2.962657555876157E-012
                    32  2.550582281839826E-004
                    33  9.135636169557678E-007
                    34 -3.472202500841657E-013
                    35 -1.284966175986875E-003
                    36 -3.350534607113431E-005
                    37 -2.453555060059409E-004
                    38  1.745873034474542E-003
                    39 -2.453555060059409E-004
                    40  1.745873034474542E-003
                    41 -2.453555038748896E-004
                    42  1.745873037903511E-003
                    43 -2.453555038748896E-004
                    44  1.745873037903511E-003
 Sym= __3_A'_
 Ene=  0.000000000000000E+000
 Spin= Alpha
 Occup=    2.00000000000000     
                     1  7.763245433036756E-002
                     2 -0.153454809285833     
                     3 -1.881901751120051E-002
                     4 -1.254682549947461E-011
                     5  0.131270102223091     
                     6 -3.776878923565456E-004
                     7 -2.689450070837821E-012
                     8 -3.278594562053696E-002
                     9  8.248136374690251E-004
                    10  7.763245433036756E-002
                    11 -0.153454809285833     
                    12 -1.881901751120051E-002
                    13 -1.254682549947461E-011
                    14  0.131270102223091     
                    15  3.776878923565456E-004
                    16 -2.689450070837821E-012
                    17 -3.278594562053696E-002
                    18 -8.248136374690251E-004
                    19  0.141757050985995     
                    20 -0.319330574742530     
                    21 -0.298740326132742     
                    22 -2.912289328360739E-011
                    23 -0.119979055418330     
                    24 -6.214825909019670E-004
                    25 -1.688760090709989E-011
                    26 -4.221711034811734E-002
                    27 -2.139314601697650E-004
                    28  0.141757050985995     
                    29 -0.319330574742530     
                    30 -0.298740326132742     
                    31 -2.912289328360739E-011
                    32 -0.119979055418330     
                    33  6.214825909019670E-004
                    34 -1.688760090709989E-011
                    35 -4.221711034811734E-002
                    36  2.139314601697650E-004
                    37 -1.832979780795333E-002
                    38  4.099740085217067E-003
                    39 -1.832979780795333E-002
                    40  4.099740085217067E-003
                    41 -1.832979780059537E-002
                    42  4.099740089500995E-003
                    43 -1.832979780059537E-002
                    44  4.099740089500995E-003
 Sym= __4_A'_
 Ene=  0.000000000000000E+000
 Spin= Alpha
 Occup=    2.00000000000000     
                     1 -0.115541904337264     
                     2  0.248026957851800     
                     3  0.227808761946058     
                     4  2.883142576254340E-011
                     5  9.346434519654472E-002
                     6 -1.793328899985439E-003
                     7 -3.609992269508662E-012
                     8  3.859554184390620E-002
                     9 -4.186674853422405E-004
                    10 -0.115541904337264     
                    11  0.248026957851800     
                    12  0.227808761946058     
                    13  2.883142576254340E-011
                    14  9.346434519654472E-002
                    15  1.793328899985439E-003
                    16 -3.609992269508662E-012
                    17  3.859554184390620E-002
                    18  4.186674853422405E-004
                    19  6.603400683883853E-002
                    20 -0.151715365830544     
                    21 -0.225294703182795     
                    22  1.491917046541401E-010
                    23  0.132518296480081     
                    24 -1.234773971884416E-003
                    25  1.313023402264806E-010
                    26  5.616924315573277E-002
                    27 -3.590974284253928E-004
                    28  6.603400683883853E-002
                    29 -0.151715365830544     
                    30 -0.225294703182795     
                    31  1.491917046541401E-010
                    32  0.132518296480081     
                    33  1.234773971884416E-003
                    34  1.313023402264806E-010
                    35  5.616924315573277E-002
                    36  3.590974284253928E-004
                    37  0.123096654337583     
                    38  4.791145100921754E-002
                    39  0.123096654337583     
                    40  4.791145100921754E-002
                    41  0.123096654376670     
                    42  4.791145111242086E-002
                    43  0.123096654376670     
                    44  4.791145111242086E-002
 Sym= __5_A'_
 Ene=  0.000000000000000E+000
 Spin= Alpha
 Occup=    2.00000000000000     
                     1 -5.072070785625467E-004
                     2  3.102339141807482E-002
                     3 -7.922827629835380E-002
                     4 -1.485876820308542E-008
                     5 -0.273759181457874     
                     6 -1.486185352615069E-004
                     7 -6.695683867681179E-009
                     8 -3.391916339881866E-002
                     9  5.719532476590826E-004
                    10 -5.072070785625467E-004
                    11  3.102339141807482E-002
                    12 -7.922827629835380E-002
                    13 -1.485876820308542E-008
                    14 -0.273759181457874     
                    15  1.486185352615069E-004
                    16 -6.695683867681179E-009
                    17 -3.391916339881866E-002
                    18 -5.719532476590826E-004
                    19  4.415741962494601E-002
                    20 -9.717650183142790E-002
                    21 -0.184974587887531     
                    22 -5.358979074346171E-009
                    23  0.361436770272023     
                    24 -1.679183840966095E-003
                    25 -1.525818279105468E-009
                    26  0.192225702921586     
                    27 -3.108549299416792E-004
                    28  4.415741962494601E-002
                    29 -9.717650183142790E-002
                    30 -0.184974587887531     
                    31 -5.358979074346171E-009
                    32  0.361436770272023     
                    33  1.679183840966095E-003
                    34 -1.525818279105468E-009
                    35  0.192225702921586     
                    36  3.108549299416792E-004
                    37 -7.854298306310575E-002
                    38 -6.030615816804204E-002
                    39 -7.854298306310575E-002
                    40 -6.030615816804204E-002
                    41 -7.854296812812656E-002
                    42 -6.030614759791372E-002
                    43 -7.854296812812656E-002
                    44 -6.030614759791372E-002
 Sym= __6_A'_
 Ene=  0.000000000000000E+000
 Spin= Alpha
 Occup=    2.00000000000000     
                     1  1.176906684648736E-010
                     2  8.533420171840564E-010
                     3 -3.426307218740863E-009
                     4  0.318855350208649     
                     5 -1.291761697926757E-008
                     6 -2.201686889255376E-008
                     7  0.143277425570573     
                     8 -1.819424269569458E-009
                     9 -1.683250812622935E-008
                    10  1.176906684648736E-010
                    11  8.533420171840564E-010
                    12 -3.426307218740863E-009
                    13  0.318855350208649     
                    14 -1.291761697926757E-008
                    15  2.201686889255376E-008
                    16  0.143277425570573     
                    17 -1.819424269569458E-009
                    18  1.683250812622935E-008
                    19  2.077114162247607E-009
                    20 -4.618691345885120E-009
                    21 -8.797151283261745E-009
                    22  0.114137330164261     
                    23  1.673819763935439E-008
                    24 -2.110095328161116E-008
                    25  3.210160029814054E-002
                    26  8.835114471953549E-009
                    27 -1.147337561172566E-008
                    28  2.077114162247607E-009
                    29 -4.618691345885120E-009
                    30 -8.797151283261745E-009
                    31  0.114137330164261     
                    32  1.673819763935439E-008
                    33  2.110095328161116E-008
                    34  3.210160029814054E-002
                    35  8.835114471953549E-009
                    36  1.147337561172566E-008
                    37  0.160893731617645     
                    38  0.114964206753840     
                    39  0.160893731617645     
                    40  0.114964206753840     
                    41 -0.160893739631152     
                    42 -0.114964212434190     
                    43 -0.160893739631152     
                    44 -0.114964212434190     
 Sym= __1_A"_
 Ene=  0.000000000000000E+000
 Spin= Alpha
 Occup=    2.00000000000000     
                     1  1.005991504475293E-004
                     2 -1.131375264932609E-004
                     3  4.624175251052505E-003
                     4  4.726597799685609E-013
                     5  1.654302620340439E-005
                     6  7.305367237399564E-005
                     7 -8.172903380967164E-013
                     8 -2.707442050506424E-003
                     9 -1.879049694138570E-004
                    10 -1.005991504475293E-004
                    11  1.131375264932609E-004
                    12 -4.624175251052505E-003
                    13 -4.726597799685609E-013
                    14 -1.654302620340439E-005
                    15  7.305367237399564E-005
                    16  8.172903380967164E-013
                    17  2.707442050506424E-003
                    18 -1.879049694138570E-004
                    19  0.704157560022069     
                    20  1.619154355270460E-002
                    21 -8.554300807572234E-003
                    22  1.419303553258136E-012
                    23  1.702449748359076E-003
                    24  4.851995862160354E-006
                    25  4.443902536084947E-014
                    26 -2.872573283267871E-003
                    27  2.546416236785236E-005
                    28 -0.704157560022069     
                    29 -1.619154355270460E-002
                    30  8.554300807572234E-003
                    31 -1.419303553258136E-012
                    32 -1.702449748359076E-003
                    33  4.851995862160354E-006
                    34 -4.443902536084947E-014
                    35  2.872573283267871E-003
                    36  2.546416236785236E-005
                    37 -1.992687386997755E-004
                    38 -1.902719851699824E-005
                    39  1.992687386997755E-004
                    40  1.902719851699824E-005
                    41 -1.992687398198599E-004
                    42 -1.902719761045406E-005
                    43  1.992687398198599E-004
                    44  1.902719761045406E-005
 Sym= __2_A"_
 Ene=  0.000000000000000E+000
 Spin= Alpha
 Occup=    2.00000000000000     
                     1  0.704289856881248     
                     2  1.769146654211707E-002
                     3 -7.603772303129979E-003
                     4 -2.935398075612096E-012
                     5 -1.246797975562391E-003
                     6 -1.697432915499905E-004
                     7 -2.040547180259105E-012
                     8 -6.261406126635111E-004
                     9  4.059751891105900E-004
                    10 -0.704289856881248     
                    11 -1.769146654211707E-002
                    12  7.603772303129979E-003
                    13  2.935398075612096E-012
                    14  1.246797975562391E-003
                    15 -1.697432915499905E-004
                    16  2.040547180259105E-012
                    17  6.261406126635111E-004
                    18  4.059751891105900E-004
                    19 -3.035579965759763E-004
                    20  6.697626209946085E-005
                    21  4.956710649507579E-005
                    22 -1.767730808256279E-012
                    23  2.202640395150791E-004
                    24  2.411298910982684E-006
                    25  3.953391648946470E-013
                    26 -8.943778773923223E-004
                    27 -8.470446965834056E-005
                    28  3.035579965759763E-004
                    29 -6.697626209946085E-005
                    30 -4.956710649507579E-005
                    31  1.767730808256279E-012
                    32 -2.202640395150791E-004
                    33  2.411298910982684E-006
                    34 -3.953391648946470E-013
                    35  8.943778773923223E-004
                    36 -8.470446965834056E-005
                    37 -1.577108470260940E-004
                    38  1.973312702547067E-003
                    39  1.577108470260940E-004
                    40 -1.973312702547067E-003
                    41 -1.577108490034280E-004
                    42  1.973312697269118E-003
                    43  1.577108490034280E-004
                    44 -1.973312697269118E-003
 Sym= __3_A"_
 Ene=  0.000000000000000E+000
 Spin= Alpha
 Occup=    2.00000000000000     
                     1  7.746687055612109E-002
                     2 -0.154984509060933     
                     3 -1.210617696067478E-002
                     4  2.588487184765109E-011
                     5  0.131628162516961     
                     6  2.591778624180117E-004
                     7  5.195054811074499E-012
                     8 -3.631570099156792E-002
                     9 -1.467004877419364E-003
                    10 -7.746687055612109E-002
                    11  0.154984509060933     
                    12  1.210617696067478E-002
                    13 -2.588487184765109E-011
                    14 -0.131628162516961     
                    15  2.591778624180117E-004
                    16 -5.195054811074499E-012
                    17  3.631570099156792E-002
                    18 -1.467004877419364E-003
                    19  0.142001458363596     
                    20 -0.319247897883719     
                    21 -0.303952538013798     
                    22 -6.824263851641171E-011
                    23 -0.120098049969037     
                    24 -4.036911212973007E-004
                    25 -4.925736743463137E-011
                    26 -4.429289212623416E-002
                    27 -7.592604926237206E-004
                    28 -0.142001458363596     
                    29  0.319247897883719     
                    30  0.303952538013798     
                    31  6.824263851641171E-011
                    32  0.120098049969037     
                    33 -4.036911212973007E-004
                    34  4.925736743463137E-011
                    35  4.429289212623416E-002
                    36 -7.592604926237206E-004
                    37 -1.846801996463307E-002
                    38  3.865495865078730E-003
                    39  1.846801996463307E-002
                    40 -3.865495865078730E-003
                    41 -1.846801999984861E-002
                    42  3.865495829088321E-003
                    43  1.846801999984861E-002
                    44 -3.865495829088321E-003
 Sym= __4_A"_
 Ene=  0.000000000000000E+000
 Spin= Alpha
 Occup=    2.00000000000000     
                     1 -0.116422432403736     
                     2  0.249059766014835     
                     3  0.235202068559790     
                     4 -2.356580817331345E-010
                     5  9.180145626623595E-002
                     6  1.859564717542404E-003
                     7 -1.941646796845839E-010
                     8  3.598491069915059E-002
                     9 -7.361566468404207E-004
                    10  0.116422432403736     
                    11 -0.249059766014835     
                    12 -0.235202068559790     
                    13  2.356580817331345E-010
                    14 -9.180145626623595E-002
                    15  1.859564717542404E-003
                    16  1.941646796845839E-010
                    17 -3.598491069915059E-002
                    18 -7.361566468404207E-004
                    19  6.625648330796946E-002
                    20 -0.151383851546073     
                    21 -0.231168525549948     
                    22 -3.588864120693166E-010
                    23  0.136269750485853     
                    24 -4.988933947788505E-006
                    25 -2.168870282452787E-010
                    26  5.550386671498452E-002
                    27 -4.900382428819950E-004
                    28 -6.625648330796946E-002
                    29  0.151383851546073     
                    30  0.231168525549948     
                    31  3.588864120693166E-010
                    32 -0.136269750485853     
                    33 -4.988933947788505E-006
                    34  2.168870282452787E-010
                    35 -5.550386671498452E-002
                    36 -4.900382428819950E-004
                    37  0.123650222214512     
                    38  4.640966310710388E-002
                    39 -0.123650222214512     
                    40 -4.640966310710388E-002
                    41  0.123650222365027     
                    42  4.640966308518200E-002
                    43 -0.123650222365027     
                    44 -4.640966308518200E-002
 Sym= __5_A"_
 Ene=  0.000000000000000E+000
 Spin= Alpha
 Occup=    2.00000000000000     
                     1  1.030159177913248E-003
                     2  2.690043198746907E-002
                     3 -8.029388724920779E-002
                     4  1.418024058436911E-008
                     5 -0.275249907314943     
                     6 -8.608811674812325E-004
                     7  6.487941835252797E-009
                     8 -3.771314969369988E-002
                     9 -5.596659183880016E-004
                    10 -1.030159177913248E-003
                    11 -2.690043198746907E-002
                    12  8.029388724920779E-002
                    13 -1.418024058436911E-008
                    14  0.275249907314943     
                    15 -8.608811674812325E-004
                    16 -6.487941835252797E-009
                    17  3.771314969369988E-002
                    18 -5.596659183880016E-004
                    19  4.404845880022849E-002
                    20 -9.733978720945277E-002
                    21 -0.185920460623926     
                    22  4.999091954541488E-009
                    23  0.360644410351367     
                    24 -1.632760505887684E-003
                    25  1.322555908521404E-009
                    26  0.190249240091346     
                    27 -2.913268133339285E-003
                    28 -4.404845880022849E-002
                    29  9.733978720945277E-002
                    30  0.185920460623926     
                    31 -4.999091954541488E-009
                    32 -0.360644410351367     
                    33 -1.632760505887684E-003
                    34 -1.322555908521404E-009
                    35 -0.190249240091346     
                    36 -2.913268133339285E-003
                    37 -8.076277897607731E-002
                    38 -5.945956894532067E-002
                    39  8.076277897607731E-002
                    40  5.945956894532067E-002
                    41 -8.076279335331800E-002
                    42 -5.945957894977344E-002
                    43  8.076279335331800E-002
                    44  5.945957894977344E-002
 Sym= __6_A"_
 Ene=  0.000000000000000E+000
 Spin= Alpha
 Occup=    2.00000000000000     
                     1 -2.769052869239274E-010
                     2 -3.061310483179831E-010
                     3  3.231847945448437E-009
                     4  0.320958598064195     
                     5  1.260405033630531E-008
                     6 -2.247249175804703E-008
                     7  0.146639234025003     
                     8  2.430125185240608E-009
                     9 -1.652714306735119E-008
                    10  2.769052869239274E-010
                    11  3.061310483179831E-010
                    12 -3.231847945448437E-009
                    13 -0.320958598064195     
                    14 -1.260405033630531E-008
                    15 -2.247249175804703E-008
                    16 -0.146639234025003     
                    17 -2.430125185240608E-009
                    18 -1.652714306735119E-008
                    19 -1.990777263406737E-009
                    20  4.409744787004808E-009
                    21  8.877586724155776E-009
                    22  0.115012700094450     
                    23 -1.594269394420212E-008
                    24 -2.128370207206441E-008
                    25  3.153642996880954E-002
                    26 -8.173085922701751E-009
                    27 -1.134457830802654E-008
                    28  1.990777263406737E-009
                    29 -4.409744787004808E-009
                    30 -8.877586724155776E-009
                    31 -0.115012700094450     
                    32  1.594269394420212E-008
                    33 -2.128370207206441E-008
                    34 -3.153642996880954E-002
                    35  8.173085922701751E-009
                    36 -1.134457830802654E-008
                    37  0.162085984917999     
                    38  0.112261378437211     
                    39 -0.162085984917999     
                    40 -0.112261378437211     
                    41 -0.162085976890381     
                    42 -0.112261373384933     
                    43  0.162085976890381     
                    44  0.112261373384933     
 Sym= __7_A'_
 Ene=  0.000000000000000E+000
 Spin= Alpha
 Occup=    1.84083381716586     
                     1 -1.323044666228092E-003
                     2  5.887640179351735E-003
                     3 -4.213989685009759E-003
                     4  1.707164365007870E-008
                     5  1.765399951671176E-003
                     6  0.231686770368195     
                     7  8.580315520572693E-009
                     8  4.744933469042795E-003
                     9  0.137516022206733     
                    10 -1.323044666228092E-003
                    11  5.887640179351735E-003
                    12 -4.213989685009759E-003
                    13  1.707164365007870E-008
                    14  1.765399951671176E-003
                    15 -0.231686770368195     
                    16  8.580315520572693E-009