[Molden Format]
[Atoms] AU
  C     1    6     0.0000000000    1.1191877500    3.3070204300        
  C     2    6     0.0000000000    1.1191877500   -3.3070204300        
  O     3    8     0.0000000000   -1.1250939700    3.3070204300        
  O     4    8     0.0000000000   -1.1250939700   -3.3070204300        
  H     5    1     1.7478091600    2.2123537900    3.3070204300        
  H     6    1     1.7478091600    2.2123537900   -3.3070204300        
  H     7    1    -1.7478091600    2.2123537900    3.3070204300        
  H     8    1    -1.7478091600    2.2123537900   -3.3070204300        
[5D]
[7F]
[GTO]
  1  0
   s     6 1.00
  0.304752D+04  0.183470D-02
  0.457370D+03  0.140373D-01
  0.103949D+03  0.688426D-01
  0.292102D+02  0.232184D+00
  0.928666D+01  0.467941D+00
  0.316393D+01  0.362312D+00
   s     3 1.00
  0.786827D+01 -0.119332D+00
  0.188129D+01 -0.160854D+00
  0.544249D+00  0.114346D+01
   s     1 1.00
  0.168714D+00  0.100000D+01
   p     3 1.00
  0.786827D+01  0.689991D-01
  0.188129D+01  0.316424D+00
  0.544249D+00  0.744308D+00
   p     1 1.00
  0.168714D+00  0.100000D+01
  
  2  0
   s     6 1.00
  0.304752D+04  0.183470D-02
  0.457370D+03  0.140373D-01
  0.103949D+03  0.688426D-01
  0.292102D+02  0.232184D+00
  0.928666D+01  0.467941D+00
  0.316393D+01  0.362312D+00
   s     3 1.00
  0.786827D+01 -0.119332D+00
  0.188129D+01 -0.160854D+00
  0.544249D+00  0.114346D+01
   s     1 1.00
  0.168714D+00  0.100000D+01
   p     3 1.00
  0.786827D+01  0.689991D-01
  0.188129D+01  0.316424D+00
  0.544249D+00  0.744308D+00
   p     1 1.00
  0.168714D+00  0.100000D+01
  
  3  0
   s     6 1.00
  0.548467D+04  0.183110D-02
  0.825235D+03  0.139501D-01
  0.188047D+03  0.684451D-01
  0.529645D+02  0.232714D+00
  0.168976D+02  0.470193D+00
  0.579964D+01  0.358521D+00
   s     3 1.00
  0.155396D+02 -0.110778D+00
  0.359993D+01 -0.148026D+00
  0.101376D+01  0.113077D+01
   s     1 1.00
  0.270006D+00  0.100000D+01
   p     3 1.00
  0.155396D+02  0.708743D-01
  0.359993D+01  0.339753D+00
  0.101376D+01  0.727159D+00
   p     1 1.00
  0.270006D+00  0.100000D+01
  
  4  0
   s     6 1.00
  0.548467D+04  0.183110D-02
  0.825235D+03  0.139501D-01
  0.188047D+03  0.684451D-01
  0.529645D+02  0.232714D+00
  0.168976D+02  0.470193D+00
  0.579964D+01  0.358521D+00
   s     3 1.00
  0.155396D+02 -0.110778D+00
  0.359993D+01 -0.148026D+00
  0.101376D+01  0.113077D+01
   s     1 1.00
  0.270006D+00  0.100000D+01
   p     3 1.00
  0.155396D+02  0.708743D-01
  0.359993D+01  0.339753D+00
  0.101376D+01  0.727159D+00
   p     1 1.00
  0.270006D+00  0.100000D+01
  
  5  0
   s     3 1.00
  0.187311D+02  0.334946D-01
  0.282539D+01  0.234727D+00
  0.640122D+00  0.813757D+00
   s     1 1.00
  0.161278D+00  0.100000D+01
  
  6  0
   s     3 1.00
  0.187311D+02  0.334946D-01
  0.282539D+01  0.234727D+00
  0.640122D+00  0.813757D+00
   s     1 1.00
  0.161278D+00  0.100000D+01
  
  7  0
   s     3 1.00
  0.187311D+02  0.334946D-01
  0.282539D+01  0.234727D+00
  0.640122D+00  0.813757D+00
   s     1 1.00
  0.161278D+00  0.100000D+01
  
  8  0
   s     3 1.00
  0.187311D+02  0.334946D-01
  0.282539D+01  0.234727D+00
  0.640122D+00  0.813757D+00
   s     1 1.00
  0.161278D+00  0.100000D+01
  
[MO]
 Sym= __1_A'_
 Ene=   1.00000000000000     
 Spin= Alpha
 Occup=    1.00000000000000     
                     1  1.136364774058102E-004
                     2  9.002114598984071E-005
                     3  3.921070041150318E-003
                     4 -3.733028357222956E-013
                     5  4.335049641550745E-005
                     6 -2.950297041555575E-005
                     7 -2.910202645651703E-013
                     8 -2.529486384525138E-003
                     9  8.806054238147374E-005
                    10  1.136364774058102E-004
                    11  9.002114598984071E-005
                    12  3.921070041150318E-003
                    13 -3.733028357222956E-013
                    14  4.335049641550745E-005
                    15  2.950297041555575E-005
                    16 -2.910202645651703E-013
                    17 -2.529486384525138E-003
                    18 -8.806054238147374E-005
                    19  0.704153016233327     
                    20  1.611123545386882E-002
                    21 -8.131916744838015E-003
                    22 -9.564579490709204E-013
                    23  1.689731378946760E-003
                    24  3.442574220593004E-006
                    25  3.856392682187563E-013
                    26 -2.707728144056516E-003
                    27 -3.255201478576682E-006
                    28  0.704153016233327     
                    29  1.611123545386882E-002
                    30 -8.131916744838015E-003
                    31 -9.564579490709204E-013
                    32  1.689731378946760E-003
                    33 -3.442574220593004E-006
                    34  3.856392682187563E-013
                    35 -2.707728144056516E-003
                    36  3.255201478576682E-006
                    37 -1.523153533062094E-004
                    38  5.597228922402083E-005
                    39 -1.523153533062094E-004
                    40  5.597228922402083E-005
                    41 -1.523153536672042E-004
                    42  5.597228812758018E-005
                    43 -1.523153536672042E-004
                    44  5.597228812758018E-005
 Sym= __2_A'_
 Ene=   2.00000000000000     
 Spin= Alpha
 Occup=    1.00000000000000     
                     1  0.704266196378830     
                     2  1.727078843911325E-002
                     3 -6.030862641049051E-003
                     4 -1.846192227806213E-012
                     5 -1.328953445592404E-003
                     6  7.238084070596832E-005
                     7  3.317537161253115E-012
                     8 -9.414568203385556E-004
                     9 -1.937563240456437E-004
                    10  0.704266196378830     
                    11  1.727078843911325E-002
                    12 -6.030862641049051E-003
                    13 -1.846192227806213E-012
                    14 -1.328953445592404E-003
                    15 -7.238084070596832E-005
                    16  3.317537161253115E-012
                    17 -9.414568203385556E-004
                    18  1.937563240456437E-004
                    19 -2.920785257065507E-004
                    20  2.716304989597543E-004
                    21 -9.033435242467908E-004
                    22  3.263775393405574E-012
                    23  2.550210186759122E-004
                    24 -9.134430675129294E-007
                    25 -2.625406038276647E-013
                    26 -1.284981979506387E-003
                    27  3.350537326824717E-005
                    28 -2.920785257065507E-004
                    29  2.716304989597543E-004
                    30 -9.033435242467908E-004
                    31  3.263775393405574E-012
                    32  2.550210186759122E-004
                    33  9.134430675129294E-007
                    34 -2.625406038276647E-013
                    35 -1.284981979506387E-003
                    36 -3.350537326824717E-005
                    37 -2.453700431264792E-004
                    38  1.745869297202052E-003
                    39 -2.453700431264792E-004
                    40  1.745869297202052E-003
                    41 -2.453700418444275E-004
                    42  1.745869300024374E-003
                    43 -2.453700418444275E-004
                    44  1.745869300024374E-003
 Sym= __3_A'_
 Ene=   3.00000000000000     
 Spin= Alpha
 Occup=    1.00000000000000     
                     1  7.763366677032441E-002
                     2 -0.153457684286196     
                     3 -1.882125995263036E-002
                     4  3.028436103190624E-012
                     5  0.131270067338355     
                     6 -3.776674075033961E-004
                     7  4.309535916524446E-012
                     8 -3.278625073828256E-002
                     9  8.248162281241359E-004
                    10  7.763366677032441E-002
                    11 -0.153457684286196     
                    12 -1.882125995263036E-002
                    13  3.028436103190624E-012
                    14  0.131270067338355     
                    15  3.776674075033961E-004
                    16  4.309535916524446E-012
                    17 -3.278625073828256E-002
                    18 -8.248162281241359E-004
                    19  0.141756247403024     
                    20 -0.319328528105811     
                    21 -0.298737141756346     
                    22 -2.354897719077492E-011
                    23 -0.119981856070976     
                    24 -6.214626902367381E-004
                    25 -1.532083926616556E-011
                    26 -4.221844097938802E-002
                    27 -2.139263282258912E-004
                    28  0.141756247403024     
                    29 -0.319328528105811     
                    30 -0.298737141756346     
                    31 -2.354897719077492E-011
                    32 -0.119981856070976     
                    33  6.214626902367381E-004
                    34 -1.532083926616556E-011
                    35 -4.221844097938802E-002
                    36  2.139263282258912E-004
                    37 -1.833087897854261E-002
                    38  4.099428234472100E-003
                    39 -1.833087897854261E-002
                    40  4.099428234472100E-003
                    41 -1.833087898690368E-002
                    42  4.099428227523768E-003
                    43 -1.833087898690368E-002
                    44  4.099428227523768E-003
 Sym= __4_A'_
 Ene=   4.00000000000000     
 Spin= Alpha
 Occup=    1.00000000000000     
                     1 -0.115540933033205     
                     2  0.248023754584325     
                     3  0.227812377007442     
                     4 -5.112090750981024E-011
                     5  9.347902259107467E-002
                     6 -1.793325917182261E-003
                     7 -3.953557040160316E-011
                     8  3.859681445004597E-002
                     9 -4.186859412443172E-004
                    10 -0.115540933033205     
                    11  0.248023754584325     
                    12  0.227812377007442     
                    13 -5.112090750981024E-011
                    14  9.347902259107467E-002
                    15  1.793325917182261E-003
                    16 -3.953557040160316E-011
                    17  3.859681445004597E-002
                    18  4.186859412443172E-004
                    19  6.603348991979172E-002
                    20 -0.151714225512122     
                    21 -0.225289096203759     
                    22  1.205736645193907E-010
                    23  0.132499511248721     
                    24 -1.234699811996914E-003
                    25  1.232541972826225E-010
                    26  5.615949232847069E-002
                    27 -3.590847958753559E-004
                    28  6.603348991979172E-002
                    29 -0.151714225512122     
                    30 -0.225289096203759     
                    31  1.205736645193907E-010
                    32  0.132499511248721     
                    33  1.234699811996914E-003
                    34  1.232541972826225E-010
                    35  5.615949232847069E-002
                    36  3.590847958753559E-004
                    37  0.123100242304313     
                    38  4.791440836515697E-002
                    39  0.123100242304313     
                    40  4.791440836515697E-002
                    41  0.123100242424090     
                    42  4.791440852602131E-002
                    43  0.123100242424090     
                    44  4.791440852602131E-002
 Sym= __5_A'_
 Ene=   5.00000000000000     
 Spin= Alpha
 Occup=    1.00000000000000     
                     1 -5.124833208552405E-004
                     2  3.103480341445400E-002
                     3 -7.921734654248624E-002
                     4 -5.247415123030015E-009
                     5 -0.273754186774067     
                     6 -1.487065038642784E-004
                     7 -2.376829963766417E-009
                     8 -3.391742039558268E-002
                     9  5.719360592801695E-004
                    10 -5.124833208552405E-004
                    11  3.103480341445400E-002
                    12 -7.921734654248624E-002
                    13 -5.247415123030015E-009
                    14 -0.273754186774067     
                    15  1.487065038642784E-004
                    16 -2.376829963766417E-009
                    17 -3.391742039558268E-002
                    18 -5.719360592801695E-004
                    19  4.416115077925280E-002
                    20 -9.718499832397418E-002
                    21 -0.184986561965013     
                    22 -1.918496459977295E-009
                    23  0.361442727561766     
                    24 -1.679245736014159E-003
                    25 -5.581639083022350E-010
                    26  0.192228259495905     
                    27 -3.108730516431899E-004
                    28  4.416115077925280E-002
                    29 -9.718499832397418E-002
                    30 -0.184986561965013     
                    31 -1.918496459977295E-009
                    32  0.361442727561766     
                    33  1.679245736014159E-003
                    34 -5.581639083022350E-010
                    35  0.192228259495905     
                    36  3.108730516431899E-004
                    37 -7.853710222549970E-002
                    38 -6.030382633979445E-002
                    39 -7.853710222549970E-002
                    40 -6.030382633979445E-002
                    41 -7.853709699025414E-002
                    42 -6.030382270046192E-002
                    43 -7.853709699025414E-002
                    44 -6.030382270046192E-002
 Sym= __6_A'_
 Ene=   6.00000000000000     
 Spin= Alpha
 Occup=    1.00000000000000     
                     1  9.827082348989811E-011
                     2 -1.197549315222307E-011
                     3 -9.798645813737213E-010
                     4  0.318855350208649     
                     5 -4.648499452803603E-009
                     6 -2.201282192131201E-008
                     7  0.143277425570573     
                     8 -7.856796988367297E-010
                     9 -1.684989367291210E-008
                    10  9.827082348989811E-011
                    11 -1.197549315222307E-011
                    12 -9.798645813737213E-010
                    13  0.318855350208649     
                    14 -4.648499452803603E-009
                    15  2.201282192131201E-008
                    16  0.143277425570573     
                    17 -7.856796988367297E-010
                    18  1.684989367291210E-008
                    19  7.562184852585895E-010
                    20 -1.712044433586208E-009
                    21 -3.263505044118877E-009
                    22  0.114137330164261     
                    23  5.882484804418560E-009
                    24 -2.105061739766989E-008
                    25  3.210160029814056E-002
                    26  3.056985746152300E-009
                    27 -1.146408539745547E-008
                    28  7.562184852585895E-010
                    29 -1.712044433586208E-009
                    30 -3.263505044118877E-009
                    31  0.114137330164261     
                    32  5.882484804418560E-009
                    33  2.105061739766989E-008
                    34  3.210160029814056E-002
                    35  3.056985746152300E-009
                    36  1.146408539745547E-008
                    37  0.160893734017050     
                    38  0.114964208583514     
                    39  0.160893734017050     
                    40  0.114964208583514     
                    41 -0.160893737231748     
                    42 -0.114964210604516     
                    43 -0.160893737231748     
                    44 -0.114964210604516     
 Sym= __7_A'_
 Ene=   7.00000000000000     
 Spin= Alpha
 Occup=    1.00000000000000     
                     1 -1.236207383109724E-003
                     2  5.596201761856267E-003
                     3 -4.516997234720095E-003
                     4  2.004035519852193E-008
                     5  1.581016125766906E-003
                     6  0.218210310069757     
                     7  9.578724581753796E-009
                     8  4.790901807010036E-003
                     9  0.123684683500094     
                    10 -1.236207383109724E-003
                    11  5.596201761856267E-003
                    12 -4.516997234720095E-003
                    13  2.004035519852193E-008
                    14  1.581016125766906E-003
                    15 -0.218210310069757     
                    16  9.578724581753796E-009
                    17  4.790901807010036E-003
                    18 -0.123684683500094     
                    19 -2.247812136211594E-004
                    20  7.417472063843016E-004
                    21  4.083892502990033E-003
                    22  2.657689662226085E-008
                    23  7.707669500377279E-004
                    24  0.381882267346351     
                    25  1.572173963806555E-008
                    26  2.187926834650002E-003
                    27  0.246136269175432     
                    28 -2.247812136211594E-004
                    29  7.417472063843016E-004
                    30  4.083892502990033E-003
                    31  2.657689662226085E-008
                    32  7.707669500377279E-004
                    33 -0.381882267346351     
                    34  1.572173963806555E-008
                    35  2.187926834650002E-003
                    36 -0.246136269175432     
                    37  2.629861047493777E-003
                    38  2.067810124866227E-004
                    39  2.629861047493777E-003
                    40  2.067810124866227E-004
                    41  2.629846332014821E-003
                    42  2.067749728693306E-004
                    43  2.629846332014821E-003
                    44  2.067749728693306E-004
 Sym= __8_A'_
 Ene=   8.00000000000000     
 Spin= Alpha
 Occup=    1.00000000000000     
                     1  1.874859631890275E-011
                     2  5.456480200939338E-011
                     3  3.059608250924660E-011
                     4 -5.770018181677327E-002
                     5  3.375502473807072E-011
                     6 -2.758982025722516E-009
                     7 -1.575770581535766E-002
                     8 -1.058942932984769E-010
                     9  8.311507395521042E-009
                    10  1.874859631890275E-011
                    11  5.456480200939338E-011
                    12  3.059608250924660E-011
                    13 -5.770018181677327E-002
                    14  3.375502473807072E-011
                    15  2.758982025722516E-009
                    16 -1.575770581535766E-002
                    17 -1.058942932984769E-010
                    18 -8.311507395521042E-009
                    19 -2.312896732011322E-011
                    20  8.675623011977957E-011
                    21 -2.293835655656132E-011
                    22  0.460243093864061     
                    23 -1.465165589806519E-011
                    24 -2.350227574334026E-008
                    25  0.334334048892247     
                    26 -8.102344849912499E-011
                    27 -1.750296005646064E-008
                    28 -2.312896732011322E-011
                    29  8.675623011977957E-011
                    30 -2.293835655656132E-011
                    31  0.460243093864061     
                    32 -1.465165589806519E-011
                    33  2.350227574334026E-008
                    34  0.334334048892247     
                    35 -8.102344849912499E-011
                    36  1.750296005646064E-008
                    37 -9.520133873611154E-002
                    38 -0.127530318740833     
                    39 -9.520133873611154E-002
                    40 -0.127530318740833     
                    41  9.520133894946009E-002
                    42  0.127530318465318     
                    43  9.520133894946009E-002
                    44  0.127530318465318     
 Sym= __9_A'_
 Ene=   9.00000000000000     
 Spin= Alpha
 Occup=    1.00000000000000     
                     1  2.440296168571672E-003
                     2 -8.215981031890007E-003
                     3 -8.356489284957689E-003
                     4 -7.852275446020223E-009
                     5 -5.162794081579486E-003
                     6 -0.379188164789653     
                     7  3.007589877579877E-009
                     8  1.193993493466163E-003
                     9 -0.387372369197844     
                    10  2.440296168571672E-003
                    11 -8.215981031890007E-003
                    12 -8.356489284957689E-003
                    13 -7.852275446020223E-009
                    14 -5.162794081579486E-003
                    15  0.379188164789653     
                    16  3.007589877579877E-009
                    17  1.193993493466163E-003
                    18  0.387372369197844     
                    19  2.773184050699698E-004
                    20 -1.456827168788233E-003
                    21  2.446321269830037E-003
                    22  5.285628701193586E-009
                    23 -3.517150822052202E-004
                    24  0.306886590171773     
                    25  1.069181080642012E-008
                    26  1.934954290648668E-003
                    27  0.293071455090489     
                    28  2.773184050699698E-004
                    29 -1.456827168788233E-003
                    30  2.446321269830037E-003
                    31  5.285628701193586E-009
                    32 -3.517150822052202E-004
                    33 -0.306886590171773     
                    34  1.069181080642012E-008
                    35  1.934954290648668E-003
                    36 -0.293071455090489     
                    37 -6.093348063207652E-003
                    38  3.765228914098839E-003
                    39 -6.093348063207652E-003
                    40  3.765228914098839E-003
                    41 -6.093336265002390E-003
                    42  3.765251010855465E-003
                    43 -6.093336265002390E-003
                    44  3.765251010855465E-003
 Sym= _10_A'_
 Ene=   10.0000000000000     
 Spin= Alpha
 Occup=    1.00000000000000     
                     1  8.594695457109193E-002
                     2 -9.502896183722848E-002
                     3  -1.40740467711957     
                     4  2.621167906333553E-010
                     5 -0.138250020498037     
                     6  1.775470202178852E-002
                     7  9.128084943854245E-010
                     8 -0.558947531781567     
                     9 -8.372922870206509E-003
                    10  8.594695457109193E-002
                    11 -9.502896183722848E-002
                    12  -1.40740467711957     
                    13  2.621167906333553E-010
                    14 -0.138250020498037     
                    15 -1.775470202178852E-002
                    16  9.128084943854245E-010
                    17 -0.558947531781567     
                    18  8.372922870206509E-003
                    19 -1.134450469877067E-003
                    20  1.027210787612810E-002
                    21 -6.469986777736789E-002
                    22  4.450931365186453E-011
                    23  4.652168628898457E-002
                    24 -2.541667907185567E-003
                    25 -2.013463388256117E-010
                    26  4.644179813540016E-002
                    27  7.839114157201734E-004
                    28 -1.134450469877067E-003
                    29  1.027210787612810E-002
                    30 -6.469986777736789E-002
                    31  4.450931365186453E-011
                    32  4.652168628898457E-002
                    33  2.541667907185567E-003
                    34 -2.013463388256117E-010
                    35  4.644179813540016E-002
                    36 -7.839114157201734E-004
                    37  1.873305551900381E-002
                    38   1.04673105768658     
                    39  1.873305551900381E-002
                    40   1.04673105768658     
                    41  1.873305543741155E-002
                    42   1.04673105979680     
                    43  1.873305543741155E-002
                    44   1.04673105979680     
 Sym= _11_A'_
 Ene=   11.0000000000000     
 Spin= Alpha
 Occup=    1.00000000000000     
                     1 -2.632578578744659E-011
                     2 -4.572889845532517E-010
                     3  2.714407673878049E-009
                     4 -0.300710148242741     
                     5 -2.512024607499618E-010
                     6 -4.116524818145767E-010
                     7  -1.13504186502318     
                     8 -4.007061601690917E-009
                     9 -2.925248411721990E-009
                    10 -2.632578578744659E-011
                    11 -4.572889845532517E-010
                    12  2.714407673878049E-009
                    13 -0.300710148242741     
                    14 -2.512024607499618E-010
                    15  4.116524818145767E-010
                    16  -1.13504186502318     
                    17 -4.007061601690917E-009
                    18  2.925248411721990E-009
                    19  1.816716017702101E-010
                    20 -2.054770690690049E-010
                    21 -3.991879480086282E-009
                    22  9.123653596800743E-002
                    23 -2.691333348639849E-010
                    24  8.641214128165160E-010
                    25  0.292376282006382     
                    26 -1.564877107089818E-009
                    27  1.906310067860370E-009
                    28  1.816716017702101E-010
                    29 -2.054770690690049E-010
                    30 -3.991879480086282E-009
                    31  9.123653596800743E-002
                    32 -2.691333348639849E-010
                    33 -8.641214128165160E-010
                    34  0.292376282006382     
                    35 -1.564877107089818E-009
                    36 -1.906310067860370E-009
                    37 -2.626897063207049E-002
                    38   1.26218606409507     
                    39 -2.626897063207049E-002
                    40   1.26218606409507     
                    41  2.626897039371366E-002
                    42  -1.26218606232567     
                    43  2.626897039371366E-002
                    44  -1.26218606232567     
 Sym= _12_A'_
 Ene=   12.0000000000000     
 Spin= Alpha
 Occup=    1.00000000000000     
                     1  3.580899766181279E-002
                     2  5.720582411185310E-002
                     3  -1.24086307782802     
                     4 -8.778215803606794E-010
                     5  3.156774829371141E-002
                     6 -4.325847852963874E-002
                     7 -3.132177019430869E-009
                     8   1.32165409261634     
                     9  9.499861075686277E-003
                    10  3.580899766181279E-002
                    11  5.720582411185310E-002
                    12  -1.24086307782802     
                    13 -8.778215803606794E-010
                    14  3.156774829371141E-002
                    15  4.325847852963874E-002
                    16 -3.132177019430869E-009
                    17   1.32165409261634     
                    18 -9.499861075686277E-003
                    19 -6.436917714432190E-002
                    20  7.521746136648062E-002
                    21   1.40076750442016     
                    22 -4.515324750072178E-011
                    23  9.777879110897920E-002
                    24 -2.103019460734453E-002
                    25  6.343592064601563E-010
                    26  0.572008898497074     
                    27  1.076883655239352E-002
                    28 -6.436917714432190E-002
                    29  7.521746136648062E-002
                    30   1.40076750442016     
                    31 -4.515324750072178E-011
                    32  9.777879110897920E-002
                    33  2.103019460734453E-002
                    34  6.343592064601563E-010
                    35  0.572008898497074     
                    36 -1.076883655239352E-002
                    37  1.617291772565157E-002
                    38 -5.206117953961201E-002
                    39  1.617291772565157E-002
                    40 -5.206117953961201E-002
                    41  1.617291774347887E-002
                    42 -5.206118691230078E-002
                    43  1.617291774347887E-002
                    44 -5.206118691230078E-002
 Sym= _13_A'_
 Ene=   13.0000000000000     
 Spin= Alpha
 Occup=    1.00000000000000     
                     1 -3.571540909218787E-003
                     2 -0.260102403280218     
                     3  0.472059165088476     
                     4  9.045890791100154E-010
                     5 -6.264495762928290E-002
                     6  0.675190438016368     
                     7 -1.516073351135619E-009
                     8  0.332772715866672     
                     9 -0.682660882407886     
                    10 -3.571540909218787E-003
                    11 -0.260102403280218     
                    12  0.472059165088476     
                    13  9.045890791100154E-010
                    14 -6.264495762928290E-002
                    15 -0.675190438016368     
                    16 -1.516073351135619E-009