[Molden Format]
[Atoms] AU
  C     1    6     0.0000000000    1.1191877500    3.3070204300        
  C     2    6     0.0000000000    1.1191877500   -3.3070204300        
  O     3    8     0.0000000000   -1.1250939700    3.3070204300        
  O     4    8     0.0000000000   -1.1250939700   -3.3070204300        
  H     5    1     1.7478091600    2.2123537900    3.3070204300        
  H     6    1     1.7478091600    2.2123537900   -3.3070204300        
  H     7    1    -1.7478091600    2.2123537900    3.3070204300        
  H     8    1    -1.7478091600    2.2123537900   -3.3070204300        
[5D]
[7F]
[GTO]
  1  0
   s     6 1.00
  0.304752D+04  0.183470D-02
  0.457370D+03  0.140373D-01
  0.103949D+03  0.688426D-01
  0.292102D+02  0.232184D+00
  0.928666D+01  0.467941D+00
  0.316393D+01  0.362312D+00
   s     3 1.00
  0.786827D+01 -0.119332D+00
  0.188129D+01 -0.160854D+00
  0.544249D+00  0.114346D+01
   s     1 1.00
  0.168714D+00  0.100000D+01
   p     3 1.00
  0.786827D+01  0.689991D-01
  0.188129D+01  0.316424D+00
  0.544249D+00  0.744308D+00
   p     1 1.00
  0.168714D+00  0.100000D+01
  
  2  0
   s     6 1.00
  0.304752D+04  0.183470D-02
  0.457370D+03  0.140373D-01
  0.103949D+03  0.688426D-01
  0.292102D+02  0.232184D+00
  0.928666D+01  0.467941D+00
  0.316393D+01  0.362312D+00
   s     3 1.00
  0.786827D+01 -0.119332D+00
  0.188129D+01 -0.160854D+00
  0.544249D+00  0.114346D+01
   s     1 1.00
  0.168714D+00  0.100000D+01
   p     3 1.00
  0.786827D+01  0.689991D-01
  0.188129D+01  0.316424D+00
  0.544249D+00  0.744308D+00
   p     1 1.00
  0.168714D+00  0.100000D+01
  
  3  0
   s     6 1.00
  0.548467D+04  0.183110D-02
  0.825235D+03  0.139501D-01
  0.188047D+03  0.684451D-01
  0.529645D+02  0.232714D+00
  0.168976D+02  0.470193D+00
  0.579964D+01  0.358521D+00
   s     3 1.00
  0.155396D+02 -0.110778D+00
  0.359993D+01 -0.148026D+00
  0.101376D+01  0.113077D+01
   s     1 1.00
  0.270006D+00  0.100000D+01
   p     3 1.00
  0.155396D+02  0.708743D-01
  0.359993D+01  0.339753D+00
  0.101376D+01  0.727159D+00
   p     1 1.00
  0.270006D+00  0.100000D+01
  
  4  0
   s     6 1.00
  0.548467D+04  0.183110D-02
  0.825235D+03  0.139501D-01
  0.188047D+03  0.684451D-01
  0.529645D+02  0.232714D+00
  0.168976D+02  0.470193D+00
  0.579964D+01  0.358521D+00
   s     3 1.00
  0.155396D+02 -0.110778D+00
  0.359993D+01 -0.148026D+00
  0.101376D+01  0.113077D+01
   s     1 1.00
  0.270006D+00  0.100000D+01
   p     3 1.00
  0.155396D+02  0.708743D-01
  0.359993D+01  0.339753D+00
  0.101376D+01  0.727159D+00
   p     1 1.00
  0.270006D+00  0.100000D+01
  
  5  0
   s     3 1.00
  0.187311D+02  0.334946D-01
  0.282539D+01  0.234727D+00
  0.640122D+00  0.813757D+00
   s     1 1.00
  0.161278D+00  0.100000D+01
  
  6  0
   s     3 1.00
  0.187311D+02  0.334946D-01
  0.282539D+01  0.234727D+00
  0.640122D+00  0.813757D+00
   s     1 1.00
  0.161278D+00  0.100000D+01
  
  7  0
   s     3 1.00
  0.187311D+02  0.334946D-01
  0.282539D+01  0.234727D+00
  0.640122D+00  0.813757D+00
   s     1 1.00
  0.161278D+00  0.100000D+01
  
  8  0
   s     3 1.00
  0.187311D+02  0.334946D-01
  0.282539D+01  0.234727D+00
  0.640122D+00  0.813757D+00
   s     1 1.00
  0.161278D+00  0.100000D+01
  
[MO]
 Sym= __1_a'_
 Ene=  0.000000000000000E+000
 Spin= Alpha
 Occup=    2.00000000000000     
                     1 -0.115540933033205     
                     2  0.248023754584325     
                     3  0.227812377007442     
                     4 -5.112090750981020E-011
                     5  9.347902259107470E-002
                     6 -1.793325917182260E-003
                     7 -3.953557040160320E-011
                     8  3.859681445004600E-002
                     9 -4.186859412443170E-004
                    10 -0.115540933033205     
                    11  0.248023754584325     
                    12  0.227812377007442     
                    13 -5.112090750981020E-011
                    14  9.347902259107470E-002
                    15  1.793325917182260E-003
                    16 -3.953557040160320E-011
                    17  3.859681445004600E-002
                    18  4.186859412443170E-004
                    19  6.603348991979170E-002
                    20 -0.151714225512122     
                    21 -0.225289096203759     
                    22  1.205736645193910E-010
                    23  0.132499511248721     
                    24 -1.234699811996910E-003
                    25  1.232541972826220E-010
                    26  5.615949232847070E-002
                    27 -3.590847958753560E-004
                    28  6.603348991979170E-002
                    29 -0.151714225512122     
                    30 -0.225289096203759     
                    31  1.205736645193910E-010
                    32  0.132499511248721     
                    33  1.234699811996910E-003
                    34  1.232541972826220E-010
                    35  5.615949232847070E-002
                    36  3.590847958753560E-004
                    37  0.123100242304313     
                    38  4.791440836515700E-002
                    39  0.123100242304313     
                    40  4.791440836515700E-002
                    41  0.123100242424090     
                    42  4.791440852602130E-002
                    43  0.123100242424090     
                    44  4.791440852602130E-002
 Sym= __2_a'_
 Ene=  0.000000000000000E+000
 Spin= Alpha
 Occup=    2.00000000000000     
                     1  7.763366677032441E-002
                     2 -0.153457684286196     
                     3 -1.882125995263040E-002
                     4  3.028436103190620E-012
                     5  0.131270067338355     
                     6 -3.776674075033960E-004
                     7  4.309535916524450E-012
                     8 -3.278625073828260E-002
                     9  8.248162281241360E-004
                    10  7.763366677032441E-002
                    11 -0.153457684286196     
                    12 -1.882125995263040E-002
                    13  3.028436103190620E-012
                    14  0.131270067338355     
                    15  3.776674075033960E-004
                    16  4.309535916524450E-012
                    17 -3.278625073828260E-002
                    18 -8.248162281241360E-004
                    19  0.141756247403024     
                    20 -0.319328528105811     
                    21 -0.298737141756346     
                    22 -2.354897719077490E-011
                    23 -0.119981856070976     
                    24 -6.214626902367380E-004
                    25 -1.532083926616560E-011
                    26 -4.221844097938800E-002
                    27 -2.139263282258910E-004
                    28  0.141756247403024     
                    29 -0.319328528105811     
                    30 -0.298737141756346     
                    31 -2.354897719077490E-011
                    32 -0.119981856070976     
                    33  6.214626902367380E-004
                    34 -1.532083926616560E-011
                    35 -4.221844097938800E-002
                    36  2.139263282258910E-004
                    37 -1.833087897854260E-002
                    38  4.099428234472100E-003
                    39 -1.833087897854260E-002
                    40  4.099428234472100E-003
                    41 -1.833087898690370E-002
                    42  4.099428227523770E-003
                    43 -1.833087898690370E-002
                    44  4.099428227523770E-003
 Sym= __3_a'_
 Ene=  0.000000000000000E+000
 Spin= Alpha
 Occup=    2.00000000000000     
                     1  0.704266196378830     
                     2  1.727078843911330E-002
                     3 -6.030862641049050E-003
                     4 -1.846192227806210E-012
                     5 -1.328953445592400E-003
                     6  7.238084070596830E-005
                     7  3.317537161253110E-012
                     8 -9.414568203385560E-004
                     9 -1.937563240456440E-004
                    10  0.704266196378830     
                    11  1.727078843911330E-002
                    12 -6.030862641049050E-003
                    13 -1.846192227806210E-012
                    14 -1.328953445592400E-003
                    15 -7.238084070596830E-005
                    16  3.317537161253110E-012
                    17 -9.414568203385560E-004
                    18  1.937563240456440E-004
                    19 -2.920785257065510E-004
                    20  2.716304989597540E-004
                    21 -9.033435242467910E-004
                    22  3.263775393405570E-012
                    23  2.550210186759120E-004
                    24 -9.134430675129290E-007
                    25 -2.625406038276650E-013
                    26 -1.284981979506390E-003
                    27  3.350537326824720E-005
                    28 -2.920785257065510E-004
                    29  2.716304989597540E-004
                    30 -9.033435242467910E-004
                    31  3.263775393405570E-012
                    32  2.550210186759120E-004
                    33  9.134430675129290E-007
                    34 -2.625406038276650E-013
                    35 -1.284981979506390E-003
                    36 -3.350537326824720E-005
                    37 -2.453700431264790E-004
                    38  1.745869297202050E-003
                    39 -2.453700431264790E-004
                    40  1.745869297202050E-003
                    41 -2.453700418444280E-004
                    42  1.745869300024370E-003
                    43 -2.453700418444280E-004
                    44  1.745869300024370E-003
 Sym= __4_a'_
 Ene=  0.000000000000000E+000
 Spin= Alpha
 Occup=    2.00000000000000     
                     1  1.136364774058100E-004
                     2  9.002114598984070E-005
                     3  3.921070041150320E-003
                     4 -3.733028357222960E-013
                     5  4.335049641550750E-005
                     6 -2.950297041555570E-005
                     7 -2.910202645651700E-013
                     8 -2.529486384525140E-003
                     9  8.806054238147370E-005
                    10  1.136364774058100E-004
                    11  9.002114598984070E-005
                    12  3.921070041150320E-003
                    13 -3.733028357222960E-013
                    14  4.335049641550750E-005
                    15  2.950297041555570E-005
                    16 -2.910202645651700E-013
                    17 -2.529486384525140E-003
                    18 -8.806054238147370E-005
                    19  0.704153016233327     
                    20  1.611123545386880E-002
                    21 -8.131916744838021E-003
                    22 -9.564579490709200E-013
                    23  1.689731378946760E-003
                    24  3.442574220593000E-006
                    25  3.856392682187560E-013
                    26 -2.707728144056520E-003
                    27 -3.255201478576680E-006
                    28  0.704153016233327     
                    29  1.611123545386880E-002
                    30 -8.131916744838021E-003
                    31 -9.564579490709200E-013
                    32  1.689731378946760E-003
                    33 -3.442574220593000E-006
                    34  3.856392682187560E-013
                    35 -2.707728144056520E-003
                    36  3.255201478576680E-006
                    37 -1.523153533062090E-004
                    38  5.597228922402080E-005
                    39 -1.523153533062090E-004
                    40  5.597228922402080E-005
                    41 -1.523153536672040E-004
                    42  5.597228812758020E-005
                    43 -1.523153536672040E-004
                    44  5.597228812758020E-005
 Sym= __5_a'_
 Ene=  0.000000000000000E+000
 Spin= Alpha
 Occup=    2.00000000000000     
                     1  9.827082348989810E-011
                     2 -1.197549315222310E-011
                     3 -9.798645813737211E-010
                     4  0.318855350208649     
                     5 -4.648499452803600E-009
                     6 -2.201282192131200E-008
                     7  0.143277425570573     
                     8 -7.856796988367300E-010
                     9 -1.684989367291210E-008
                    10  9.827082348989810E-011
                    11 -1.197549315222310E-011
                    12 -9.798645813737211E-010
                    13  0.318855350208649     
                    14 -4.648499452803600E-009
                    15  2.201282192131200E-008
                    16  0.143277425570573     
                    17 -7.856796988367300E-010
                    18  1.684989367291210E-008
                    19  7.562184852585890E-010
                    20 -1.712044433586210E-009
                    21 -3.263505044118880E-009
                    22  0.114137330164261     
                    23  5.882484804418560E-009
                    24 -2.105061739766990E-008
                    25  3.210160029814060E-002
                    26  3.056985746152300E-009
                    27 -1.146408539745550E-008
                    28  7.562184852585890E-010
                    29 -1.712044433586210E-009
                    30 -3.263505044118880E-009
                    31  0.114137330164261     
                    32  5.882484804418560E-009
                    33  2.105061739766990E-008
                    34  3.210160029814060E-002
                    35  3.056985746152300E-009
                    36  1.146408539745550E-008
                    37  0.160893734017050     
                    38  0.114964208583514     
                    39  0.160893734017050     
                    40  0.114964208583514     
                    41 -0.160893737231748     
                    42 -0.114964210604516     
                    43 -0.160893737231748     
                    44 -0.114964210604516     
 Sym= __6_a'_
 Ene=  0.000000000000000E+000
 Spin= Alpha
 Occup=    2.00000000000000     
                     1 -5.124833208552400E-004
                     2  3.103480341445400E-002
                     3 -7.921734654248620E-002
                     4 -5.247415123030010E-009
                     5 -0.273754186774067     
                     6 -1.487065038642780E-004
                     7 -2.376829963766420E-009
                     8 -3.391742039558270E-002
                     9  5.719360592801700E-004
                    10 -5.124833208552400E-004
                    11  3.103480341445400E-002
                    12 -7.921734654248620E-002
                    13 -5.247415123030010E-009
                    14 -0.273754186774067     
                    15  1.487065038642780E-004
                    16 -2.376829963766420E-009
                    17 -3.391742039558270E-002
                    18 -5.719360592801700E-004
                    19  4.416115077925280E-002
                    20 -9.718499832397420E-002
                    21 -0.184986561965013     
                    22 -1.918496459977300E-009
                    23  0.361442727561766     
                    24 -1.679245736014160E-003
                    25 -5.581639083022350E-010
                    26  0.192228259495905     
                    27 -3.108730516431900E-004
                    28  4.416115077925280E-002
                    29 -9.718499832397420E-002
                    30 -0.184986561965013     
                    31 -1.918496459977300E-009
                    32  0.361442727561766     
                    33  1.679245736014160E-003
                    34 -5.581639083022350E-010
                    35  0.192228259495905     
                    36  3.108730516431900E-004
                    37 -7.853710222549970E-002
                    38 -6.030382633979440E-002
                    39 -7.853710222549970E-002
                    40 -6.030382633979440E-002
                    41 -7.853709699025410E-002
                    42 -6.030382270046190E-002
                    43 -7.853709699025410E-002
                    44 -6.030382270046190E-002
 Sym= __1_a"_
 Ene=  0.000000000000000E+000
 Spin= Alpha
 Occup=    2.00000000000000     
                     1 -0.116421544588246     
                     2  0.249056729811694     
                     3  0.235205898187955     
                     4 -9.238857846157590E-011
                     5  9.181649743702661E-002
                     6  1.859610060454670E-003
                     7 -1.287083881975580E-010
                     8  3.598637168870100E-002
                     9 -7.361451617586410E-004
                    10  0.116421544588246     
                    11 -0.249056729811694     
                    12 -0.235205898187955     
                    13  9.238857846157590E-011
                    14 -9.181649743702661E-002
                    15  1.859610060454670E-003
                    16  1.287083881975580E-010
                    17 -3.598637168870100E-002
                    18 -7.361451617586410E-004
                    19  6.625591320045730E-002
                    20 -0.151382566922274     
                    21 -0.231162700143132     
                    22 -3.075438345179770E-010
                    23  0.136250620233894     
                    24 -4.912777012150720E-006
                    25 -2.028068743267050E-010
                    26  5.549398501445790E-002
                    27 -4.899027981874410E-004
                    28 -6.625591320045730E-002
                    29  0.151382566922274     
                    30  0.231162700143132     
                    31  3.075438345179770E-010
                    32 -0.136250620233894     
                    33 -4.912777012150720E-006
                    34  2.028068743267050E-010
                    35 -5.549398501445790E-002
                    36 -4.899027981874410E-004
                    37  0.123654005645138     
                    38  4.641264152673630E-002
                    39 -0.123654005645138     
                    40 -4.641264152673630E-002
                    41  0.123654005650952     
                    42  4.641264140459600E-002
                    43 -0.123654005650952     
                    44 -4.641264140459600E-002
 Sym= __2_a"_
 Ene=  0.000000000000000E+000
 Spin= Alpha
 Occup=    2.00000000000000     
                     1  7.746807649386450E-002
                     2 -0.154987356654865     
                     3 -1.210847838368350E-002
                     4  2.367227818248380E-011
                     5  0.131628151177439     
                     6  2.591605056657880E-004
                     7  4.185087757345420E-012
                     8 -3.631596109636040E-002
                     9 -1.466994787300780E-003
                    10 -7.746807649386450E-002
                    11  0.154987356654865     
                    12  1.210847838368350E-002
                    13 -2.367227818248380E-011
                    14 -0.131628151177439     
                    15  2.591605056657880E-004
                    16 -4.185087757345420E-012
                    17  3.631596109636040E-002
                    18 -1.466994787300780E-003
                    19  0.142000660355392     
                    20 -0.319245871400741     
                    21 -0.303949312291785     
                    22 -6.903217463478971E-011
                    23 -0.120100865243567     
                    24 -4.036851258007140E-004
                    25 -4.947237550718910E-011
                    26 -4.429419690939040E-002
                    27 -7.592444751007900E-004
                    28 -0.142000660355392     
                    29  0.319245871400741     
                    30  0.303949312291785     
                    31  6.903217463478971E-011
                    32  0.120100865243567     
                    33 -4.036851258007140E-004
                    34  4.947237550718910E-011
                    35  4.429419690939040E-002
                    36 -7.592444751007900E-004
                    37 -1.846909037396610E-002
                    38  3.865199935884880E-003
                    39  1.846909037396610E-002
                    40 -3.865199935884880E-003
                    41 -1.846909040694570E-002
                    42  3.865199901444630E-003
                    43  1.846909040694570E-002
                    44 -3.865199901444630E-003
 Sym= __3_a"_
 Ene=  0.000000000000000E+000
 Spin= Alpha
 Occup=    2.00000000000000     
                     1  0.704289878946139     
                     2  1.769141981849530E-002
                     3 -7.603799774451550E-003
                     4 -2.744059090627290E-012
                     5 -1.246788675141410E-003
                     6 -1.697434659669020E-004
                     7 -1.953119037077660E-012
                     8 -6.261478938745090E-004
                     9  4.059751339091140E-004
                    10 -0.704289878946139     
                    11 -1.769141981849530E-002
                    12  7.603799774451550E-003
                    13  2.744059090627290E-012
                    14  1.246788675141410E-003
                    15 -1.697434659669020E-004
                    16  1.953119037077660E-012
                    17  6.261478938745090E-004
                    18  4.059751339091140E-004
                    19 -3.035526914579380E-004
                    20  6.696257210868490E-005
                    21  4.956658312868810E-005
                    22 -1.699139850543820E-012
                    23  2.202268675320320E-004
                    24  2.411293709686060E-006
                    25  4.141587317446800E-013
                    26 -8.943935069833470E-004
                    27 -8.470442581397430E-005
                    28  3.035526914579380E-004
                    29 -6.696257210868490E-005
                    30 -4.956658312868810E-005
                    31  1.699139850543820E-012
                    32 -2.202268675320320E-004
                    33  2.411293709686060E-006
                    34 -4.141587317446800E-013
                    35  8.943935069833470E-004
                    36 -8.470442581397430E-005
                    37 -1.577256956631580E-004
                    38  1.973308938004290E-003
                    39  1.577256956631580E-004
                    40 -1.973308938004290E-003
                    41 -1.577256978337360E-004
                    42  1.973308932592520E-003
                    43  1.577256978337360E-004
                    44 -1.973308932592520E-003
 Sym= __4_a"_
 Ene=  0.000000000000000E+000
 Spin= Alpha
 Occup=    2.00000000000000     
                     1  1.005960393788560E-004
                     2 -1.131313094339910E-004
                     3  4.624166717366950E-003
                     4  3.108556942511470E-013
                     5  1.652949019164810E-005
                     6  7.305356505404860E-005
                     7 -8.912099702095240E-013
                     8 -2.707437975311540E-003
                     9 -1.879047169200660E-004
                    10 -1.005960393788560E-004
                    11  1.131313094339910E-004
                    12 -4.624166717366950E-003
                    13 -3.108556942511470E-013
                    14 -1.652949019164810E-005
                    15  7.305356505404860E-005
                    16  8.912099702095240E-013
                    17  2.707437975311540E-003
                    18 -1.879047169200660E-004
                    19  0.704157536226391     
                    20  1.619159712612720E-002
                    21 -8.554242099426290E-003
                    22  1.361350213517680E-012
                    23  1.702446687062270E-003
                    24  4.852102082689710E-006
                    25  2.856024252498060E-014
                    26 -2.872576537769610E-003
                    27  2.546438293746940E-005
                    28 -0.704157536226391     
                    29 -1.619159712612720E-002
                    30  8.554242099426290E-003
                    31 -1.361350213517680E-012
                    32 -1.702446687062270E-003
                    33  4.852102082689710E-006
                    34 -2.856024252498060E-014
                    35  2.872576537769610E-003
                    36  2.546438293746940E-005
                    37 -1.992703782496220E-004
                    38 -1.902830342550340E-005
                    39  1.992703782496220E-004
                    40  1.902830342550340E-005
                    41 -1.992703792062750E-004
                    42 -1.902830240575590E-005
                    43  1.992703792062750E-004
                    44  1.902830240575590E-005
 Sym= __5_a"_
 Ene=  0.000000000000000E+000
 Spin= Alpha
 Occup=    2.00000000000000     
                     1  1.024709221364600E-003
                     2  2.691216462125020E-002
                     3 -8.028231919280510E-002
                     4  3.689290701699960E-009
                     5 -0.275244895786866     
                     6 -8.607884173509240E-004
                     7  1.694843153183550E-009
                     8 -3.771150529524160E-002
                     9 -5.597075967201000E-004
                    10 -1.024709221364600E-003
                    11 -2.691216462125020E-002
                    12  8.028231919280510E-002
                    13 -3.689290701699960E-009
                    14  0.275244895786866     
                    15 -8.607884173509240E-004
                    16 -1.694843153183550E-009
                    17  3.771150529524160E-002
                    18 -5.597075967201000E-004
                    19  4.405226918153420E-002
                    20 -9.734842206549170E-002
                    21 -0.185932979519314     
                    22  1.239738196536740E-009
                    23  0.360650700681352     
                    24 -1.632762218843930E-003
                    25  2.917368602393190E-010
                    26  0.190251818833007     
                    27 -2.913295086911970E-003
                    28 -4.405226918153420E-002
                    29  9.734842206549170E-002
                    30  0.185932979519314     
                    31 -1.239738196536740E-009
                    32 -0.360650700681352     
                    33 -1.632762218843930E-003
                    34 -2.917368602393190E-010
                    35 -0.190251818833007     
                    36 -2.913295086911970E-003
                    37 -8.075674671568500E-002
                    38 -5.945726716690720E-002
                    39  8.075674671568500E-002
                    40  5.945726716690720E-002
                    41 -8.075675049694719E-002
                    42 -5.945726983255060E-002
                    43  8.075675049694719E-002
                    44  5.945726983255060E-002
 Sym= __6_a"_
 Ene=  0.000000000000000E+000
 Spin= Alpha
 Occup=    2.00000000000000     
                     1 -1.910875087322120E-010
                     2  4.607547646711410E-010
                     3  5.021398503765540E-010
                     4  0.320958598064195     
                     5  3.567025101394610E-009
                     6 -2.250145998006350E-008
                     7  0.146639234025003     
                     8  1.181089011443290E-009
                     9 -1.654511783953720E-008
                    10  1.910875087322120E-010
                    11 -4.607547646711410E-010
                    12 -5.021398503765540E-010
                    13 -0.320958598064195     
                    14 -3.567025101394610E-009
                    15 -2.250145998006350E-008
                    16 -0.146639234025003     
                    17 -1.181089011443290E-009
                    18 -1.654511783953720E-008
                    19 -5.792814562620731E-010
                    20  1.293548560666750E-009
                    21  2.901768922475980E-009
                    22  0.115012700094450     
                    23 -4.216294480043890E-009
                    24 -2.133707148994600E-008
                    25  3.153642996880960E-002
                    26 -1.979656140826540E-009
                    27 -1.143958835188940E-008
                    28  5.792814562620731E-010
                    29 -1.293548560666750E-009
                    30 -2.901768922475980E-009
                    31 -0.115012700094450     
                    32  4.216294480043890E-009
                    33 -2.133707148994600E-008
                    34 -3.153642996880960E-002
                    35  1.979656140826540E-009
                    36 -1.143958835188940E-008
                    37  0.162085982222772     
                    38  0.112261376472981     
                    39 -0.162085982222772     
                    40 -0.112261376472981     
                    41 -0.162085979585609     
                    42 -0.112261375349163     
                    43  0.162085979585609     
                    44  0.112261375349163     
 Sym= __7_a'_
 Ene=  0.000000000000000E+000
 Spin= Alpha
 Occup=    1.99991531392301     
                     1 -8.523205544118370E-004
                     2  4.287186214218430E-003
                     3 -5.730612498826310E-003
                     4  1.955877542601120E-008
                     5  7.807829203110819E-004
                     6  0.158258250189055     
                     7  1.018019551795230E-008
                     8  4.916476418534910E-003
                     9  6.358359249044770E-002
                    10 -8.523205544118370E-004
                    11  4.287186214218430E-003
                    12 -5.730612498826310E-003
                    13  1.955877542601120E-008
                    14  7.807829203110819E-004
                    15 -0.158258250189055     
                    16  1.018019551795230E-008