[Molden Format]
[Title]
                                                                                
[Atoms] AU
 o     1    8 0.00000000000000E+00 0.00000000000000E+00 -.72557892405437E+00
 h     2    1 0.14171342089217E+01 0.00000000000000E+00 0.36278946202719E+00
 h     3    1 -.14171342089217E+01 0.00000000000000E+00 0.36278946202719E+00
[GTO]
    1 0
 s    5 1.00
 0.22661767785000E+04 -.53893503921743E-02
 0.34087010191000E+03 -.40234721388960E-01
 0.77363135167000E+02 -.18008184205526E+00
 0.21479644940000E+02 -.46828857657651E+00
 0.66589433124000E+01 -.44692617160187E+00
 s    1 1.00
 0.80975975668000E+00 0.10000000000000E+01
 s    1 1.00
 0.25530772234000E+00 0.10000000000000E+01
 p    3 1.00
 0.17721504317000E+02 0.62630248763161E-01
 0.38635505440000E+01 0.33331138482352E+00
 0.10480920883000E+01 0.74148638308122E+00
 p    1 1.00
 0.27641544411000E+00 0.10000000000000E+01
 d    1 1.00
 0.12000000000000E+01 0.10000000000000E+01
 
    2 0
 s    3 1.00
 0.13010701000000E+02 0.33485484812989E-01
 0.19622572000000E+01 0.23472187088125E+00
 0.44453796000000E+00 0.81377028525955E+00
 s    1 1.00
 0.12194962000000E+00 0.10000000000000E+01
 p    1 1.00
 0.80000000000000E+00 0.10000000000000E+01
 
    3 0
 s    3 1.00
 0.13010701000000E+02 0.33485484812989E-01
 0.19622572000000E+01 0.23472187088125E+00
 0.44453796000000E+00 0.81377028525955E+00
 s    1 1.00
 0.12194962000000E+00 0.10000000000000E+01
 p    1 1.00
 0.80000000000000E+00 0.10000000000000E+01
 
[MO]
 Sym=     1a1  
 Ene= -.20543616551493E+02
 Spin= Alpha
 Occup= 2.000000
     1 0.99029623901752E+00
     2 -.33569316536224E-01
     3 0.10293558355412E-01
     4 0.00000000000000E+00
     5 0.00000000000000E+00
     6 -.28688020245451E-02
     7 0.00000000000000E+00
     8 0.00000000000000E+00
     9 0.68988085691224E-04
    10 -.44210609604769E-03
    11 0.50068424682368E-03
    12 -.58578150775999E-04
    13 0.00000000000000E+00
    14 0.00000000000000E+00
    15 0.00000000000000E+00
    16 0.20007920033542E-02
    17 -.17913004624681E-02
    18 -.20324982070453E-02
    19 0.00000000000000E+00
    20 -.15818286780002E-02
    21 0.20007920033542E-02
    22 -.17913004624681E-02
    23 0.20324982070453E-02
    24 0.00000000000000E+00
    25 -.15818286780002E-02
 Sym=     2a1  
 Ene= -.13247078786760E+01
 Spin= Alpha
 Occup= 2.000000
     1 0.27814669989062E+00
     2 0.54807097750995E+00
     3 0.28144423657060E+00
     4 0.00000000000000E+00
     5 0.00000000000000E+00
     6 0.87057087488450E-01
     7 0.00000000000000E+00
     8 0.00000000000000E+00
     9 -.67132705968676E-02
    10 0.15938160852069E-02
    11 -.25142445433581E-02
    12 0.92042845815111E-03
    13 0.00000000000000E+00
    14 0.00000000000000E+00
    15 0.00000000000000E+00
    16 0.19856096356732E+00
    17 0.61540784723055E-02
    18 -.33069295742791E-01
    19 0.00000000000000E+00
    20 -.17084637325505E-01
    21 0.19856096356732E+00
    22 0.61540784723055E-02
    23 0.33069295742791E-01
    24 0.00000000000000E+00
    25 -.17084637325505E-01
 Sym=     1b1  
 Ene= -.71085935938641E+00
 Spin= Alpha
 Occup= 2.000000
     1 0.00000000000000E+00
     2 0.00000000000000E+00
     3 0.00000000000000E+00
     4 0.49261466009982E+00
     5 0.00000000000000E+00
     6 0.00000000000000E+00
     7 0.22183945701212E+00
     8 0.00000000000000E+00
     9 0.00000000000000E+00
    10 0.00000000000000E+00
    11 0.00000000000000E+00
    12 0.00000000000000E+00
    13 0.00000000000000E+00
    14 0.15324530880982E-01
    15 0.00000000000000E+00
    16 0.32972977931844E+00
    17 0.81472848587562E-01
    18 -.21757342825438E-01
    19 0.00000000000000E+00
    20 -.30528366857832E-01
    21 -.32972977931844E+00
    22 -.81472848587562E-01
    23 -.21757342825438E-01
    24 0.00000000000000E+00
    25 0.30528366857832E-01
 Sym=     3a1  
 Ene= -.56948774563153E+00
 Spin= Alpha
 Occup= 2.000000
     1 -.96289259639224E-01
     2 -.20072033400338E+00
     3 -.33468378491519E+00
     4 0.00000000000000E+00
     5 0.00000000000000E+00
     6 0.54900120708015E+00
     7 0.00000000000000E+00
     8 0.00000000000000E+00
     9 0.36091022627468E+00
    10 -.32742289480252E-02
    11 -.71266146162768E-02
    12 0.10400843564302E-01
    13 0.00000000000000E+00
    14 0.00000000000000E+00
    15 0.00000000000000E+00
    16 0.20233174065938E+00
    17 0.50580641707714E-01
    18 -.30415333607128E-01
    19 0.00000000000000E+00
    20 0.77767124316366E-02
    21 0.20233174065938E+00
    22 0.50580641707714E-01
    23 0.30415333607128E-01
    24 0.00000000000000E+00
    25 0.77767124316366E-02
 Sym=     1b2  
 Ene= -.49885997313892E+00
 Spin= Alpha
 Occup= 2.000000
     1 0.00000000000000E+00
     2 0.00000000000000E+00
     3 0.00000000000000E+00
     4 0.00000000000000E+00
     5 0.63206615899036E+00
     6 0.00000000000000E+00
     7 0.00000000000000E+00
     8 0.49672613072348E+00
     9 0.00000000000000E+00
    10 0.00000000000000E+00
    11 0.00000000000000E+00
    12 0.00000000000000E+00
    13 0.00000000000000E+00
    14 0.00000000000000E+00
    15 0.10693239668595E-01
    16 0.00000000000000E+00
    17 0.00000000000000E+00
    18 0.00000000000000E+00
    19 0.29455435150277E-01
    20 0.00000000000000E+00
    21 0.00000000000000E+00
    22 0.00000000000000E+00
    23 0.00000000000000E+00
    24 0.29455435150277E-01
    25 0.00000000000000E+00
 Sym=     4a1  
 Ene= 0.17810130065206E+00
 Spin= Alpha
 Occup= 0.000000
     1 0.87077460712473E-01
     2 0.88670275524412E-01
     3 0.11174501821254E+01
     4 0.00000000000000E+00
     5 0.00000000000000E+00
     6 0.18222692157831E+00
     7 0.00000000000000E+00
     8 0.00000000000000E+00
     9 0.36198579623815E+00
    10 0.28698348625483E-02
    11 -.74518220296967E-02
    12 0.45819871671484E-02
    13 0.00000000000000E+00
    14 0.00000000000000E+00
    15 0.00000000000000E+00
    16 -.64788199397343E-01
    17 -.90492722943459E+00
    18 0.16210753065476E-01
    19 0.00000000000000E+00
    20 0.11752408698069E-01
    21 -.64788199397343E-01
    22 -.90492722943459E+00
    23 -.16210753065476E-01
    24 0.00000000000000E+00
    25 0.11752408698069E-01
 Sym=     2b1  
 Ene= 0.25703081855281E+00
 Spin= Alpha
 Occup= 0.000000
     1 0.00000000000000E+00
     2 0.00000000000000E+00
     3 0.00000000000000E+00
     4 -.27878583305362E+00
     5 0.00000000000000E+00
     6 0.00000000000000E+00
     7 -.65889809207255E+00
     8 0.00000000000000E+00
     9 0.00000000000000E+00
    10 0.00000000000000E+00
    11 0.00000000000000E+00
    12 0.00000000000000E+00
    13 0.00000000000000E+00
    14 -.11517048837623E-01
    15 0.00000000000000E+00
    16 0.22380356104549E-01
    17 0.14520644511786E+01
    18 -.15856790477534E-01
    19 0.00000000000000E+00
    20 -.12995910268307E-01
    21 -.22380356104549E-01
    22 -.14520644511786E+01
    23 -.15856790477534E-01
    24 0.00000000000000E+00
    25 0.12995910268307E-01
 Sym=     3b1  
 Ene= 0.80533904343932E+00
 Spin= Alpha
 Occup= 0.000000
     1 0.00000000000000E+00
     2 0.00000000000000E+00
     3 0.00000000000000E+00
     4 -.26774294791543E+00
     5 0.00000000000000E+00
     6 0.00000000000000E+00
     7 -.54726581569961E+00
     8 0.00000000000000E+00
     9 0.00000000000000E+00
    10 0.00000000000000E+00
    11 0.00000000000000E+00
    12 0.00000000000000E+00
    13 0.00000000000000E+00
    14 0.63198781091211E-01
    15 0.00000000000000E+00
    16 0.97474744113982E+00
    17 -.63944837702003E+00
    18 0.58197546308325E-01
    19 0.00000000000000E+00
    20 0.12925083190682E+00
    21 -.97474744113982E+00
    22 0.63944837702003E+00
    23 0.58197546308325E-01
    24 0.00000000000000E+00
    25 -.12925083190682E+00
 Sym=     5a1  
 Ene= 0.87965754780190E+00
 Spin= Alpha
 Occup= 0.000000
     1 -.11618581269396E+00
     2 -.40046426552321E+00
     3 0.38027912707093E+00
     4 0.00000000000000E+00
     5 0.00000000000000E+00
     6 -.32711691914553E+00
     7 0.00000000000000E+00
     8 0.00000000000000E+00
     9 -.51907065541505E-01
    10 0.54055017957321E-01
    11 -.53654072886649E-01
    12 -.40094507067117E-03
    13 0.00000000000000E+00
    14 0.00000000000000E+00
    15 0.00000000000000E+00
    16 0.82458669649623E+00
    17 -.55733734186051E+00
    18 0.25357905020400E+00
    19 0.00000000000000E+00
    20 0.51953418773589E-01
    21 0.82458669649623E+00
    22 -.55733734186051E+00
    23 -.25357905020400E+00
    24 0.00000000000000E+00
    25 0.51953418773589E-01
 Sym=     6a1  
 Ene= 0.11838817112195E+01
 Spin= Alpha
 Occup= 0.000000
     1 0.12630336008145E+00
     2 0.53992502975400E+00
     3 0.64412294517676E-01
     4 0.00000000000000E+00
     5 0.00000000000000E+00
     6 -.79334461440787E+00
     7 0.00000000000000E+00
     8 0.00000000000000E+00
     9 0.12117310275091E+01
    10 -.38636899746840E-02
    11 0.12246459284971E-02
    12 0.26390440461868E-02
    13 0.00000000000000E+00
    14 0.00000000000000E+00
    15 0.00000000000000E+00
    16 -.41138337892978E+00
    17 -.38618799650949E-01
    18 0.75961874634737E-01
    19 0.00000000000000E+00
    20 0.13831071235092E+00
    21 -.41138337892978E+00
    22 -.38618799650949E-01
    23 -.75961874634737E-01
    24 0.00000000000000E+00
    25 0.13831071235092E+00
 Sym=     2b2  
 Ene= 0.12018289316509E+01
 Spin= Alpha
 Occup= 0.000000
     1 0.00000000000000E+00
     2 0.00000000000000E+00
     3 0.00000000000000E+00
     4 0.00000000000000E+00
     5 -.96699605385255E+00
     6 0.00000000000000E+00
     7 0.00000000000000E+00
     8 0.10409504113437E+01
     9 0.00000000000000E+00
    10 0.00000000000000E+00
    11 0.00000000000000E+00
    12 0.00000000000000E+00
    13 0.00000000000000E+00
    14 0.00000000000000E+00
    15 -.27641067655375E-02
    16 0.00000000000000E+00
    17 0.00000000000000E+00
    18 0.00000000000000E+00
    19 -.99709085813766E-02
    20 0.00000000000000E+00
    21 0.00000000000000E+00
    22 0.00000000000000E+00
    23 0.00000000000000E+00
    24 -.99709085813766E-02
    25 0.00000000000000E+00
 Sym=     4b1  
 Ene= 0.12680671650848E+01
 Spin= Alpha
 Occup= 0.000000
     1 0.00000000000000E+00
     2 0.00000000000000E+00
     3 0.00000000000000E+00
     4 0.75951281902105E+00
     5 0.00000000000000E+00
     6 0.00000000000000E+00
     7 -.17440528095375E+01
     8 0.00000000000000E+00
     9 0.00000000000000E+00
    10 0.00000000000000E+00
    11 0.00000000000000E+00
    12 0.00000000000000E+00
    13 0.00000000000000E+00
    14 -.28960521404102E-01
    15 0.00000000000000E+00
    16 0.35142693840840E+00
    17 0.81859734180889E+00
    18 -.26193312967341E+00
    19 0.00000000000000E+00
    20 -.17306559382141E+00
    21 -.35142693840840E+00
    22 -.81859734180889E+00
    23 -.26193312967341E+00
    24 0.00000000000000E+00
    25 0.17306559382141E+00
 Sym=     7a1  
 Ene= 0.13392314929379E+01
 Spin= Alpha
 Occup= 0.000000
     1 -.24757297119004E+00
     2 -.15441623025822E+01
     3 0.28284977720422E+01
     4 0.00000000000000E+00
     5 0.00000000000000E+00
     6 -.67723543993495E-01
     7 0.00000000000000E+00
     8 0.00000000000000E+00
     9 0.60072888760673E+00
    10 -.29830461313962E-01
    11 0.77627051006852E-02
    12 0.22067756213277E-01
    13 0.00000000000000E+00
    14 0.00000000000000E+00
    15 0.00000000000000E+00
    16 -.53566276540167E+00
    17 -.51302542774711E+00
    18 -.32902927081834E-02
    19 0.00000000000000E+00
    20 0.31913230361484E+00
    21 -.53566276540167E+00
    22 -.51302542774711E+00
    23 0.32902927081834E-02
    24 0.00000000000000E+00
    25 0.31913230361484E+00
 Sym=     1a2  
 Ene= 0.15988634048590E+01
 Spin= Alpha
 Occup= 0.000000
     1 0.00000000000000E+00
     2 0.00000000000000E+00
     3 0.00000000000000E+00
     4 0.00000000000000E+00
     5 0.00000000000000E+00
     6 0.00000000000000E+00
     7 0.00000000000000E+00
     8 0.00000000000000E+00
     9 0.00000000000000E+00
    10 0.00000000000000E+00
    11 0.00000000000000E+00
    12 0.00000000000000E+00
    13 0.93777488687710E-01
    14 0.00000000000000E+00
    15 0.00000000000000E+00
    16 0.00000000000000E+00
    17 0.00000000000000E+00
    18 0.00000000000000E+00
    19 0.67035707257576E+00
    20 0.00000000000000E+00
    21 0.00000000000000E+00
    22 0.00000000000000E+00
    23 0.00000000000000E+00
    24 -.67035707257576E+00
    25 0.00000000000000E+00
 Sym=     8a1  
 Ene= 0.16676533971291E+01
 Spin= Alpha
 Occup= 0.000000
     1 -.83790425845722E-01
     2 -.69422283793329E+00
     3 0.16784939561945E+01
     4 0.00000000000000E+00
     5 0.00000000000000E+00
     6 -.48291276280461E-01
     7 0.00000000000000E+00
     8 0.00000000000000E+00
     9 0.11508104236034E+01
    10 0.37576217485842E-01
    11 0.67550958082361E-01
    12 -.10512717556820E+00
    13 0.00000000000000E+00
    14 0.00000000000000E+00
    15 0.00000000000000E+00
    16 -.74398963968076E+00
    17 -.17574725659184E+00
    18 0.43092844306827E+00
    19 0.00000000000000E+00
    20 -.46234566600058E+00
    21 -.74398963968076E+00
    22 -.17574725659184E+00
    23 -.43092844306827E+00
    24 0.00000000000000E+00
    25 -.46234566600058E+00
 Sym=     3b2  
 Ene= 0.18138040860157E+01
 Spin= Alpha
 Occup= 0.000000
     1 0.00000000000000E+00
     2 0.00000000000000E+00
     3 0.00000000000000E+00
     4 0.00000000000000E+00
     5 -.51755433032039E-01
     6 0.00000000000000E+00
     7 0.00000000000000E+00
     8 -.55322790030349E+00
     9 0.00000000000000E+00
    10 0.00000000000000E+00
    11 0.00000000000000E+00
    12 0.00000000000000E+00
    13 0.00000000000000E+00
    14 0.00000000000000E+00
    15 0.11434746120511E+00
    16 0.00000000000000E+00
    17 0.00000000000000E+00
    18 0.00000000000000E+00
    19 0.74205737260787E+00
    20 0.00000000000000E+00
    21 0.00000000000000E+00
    22 0.00000000000000E+00
    23 0.00000000000000E+00
    24 0.74205737260787E+00
    25 0.00000000000000E+00
 Sym=     5b1  
 Ene= 0.20712014373689E+01
 Spin= Alpha
 Occup= 0.000000
     1 0.00000000000000E+00
     2 0.00000000000000E+00
     3 0.00000000000000E+00
     4 -.11066612612261E-01
     5 0.00000000000000E+00
     6 0.00000000000000E+00
     7 0.82403287864820E+00
     8 0.00000000000000E+00
     9 0.00000000000000E+00
    10 0.00000000000000E+00
    11 0.00000000000000E+00
    12 0.00000000000000E+00
    13 0.00000000000000E+00
    14 -.14041712969115E-01
    15 0.00000000000000E+00
    16 -.35793870242638E+00
    17 -.82259815939956E-01
    18 -.47827615086684E+00
    19 0.00000000000000E+00
    20 0.66416254128032E+00
    21 0.35793870242638E+00
    22 0.82259815939956E-01
    23 -.47827615086684E+00
    24 0.00000000000000E+00
    25 -.66416254128032E+00
 Sym=     6b1  
 Ene= 0.25950926500880E+01
 Spin= Alpha
 Occup= 0.000000
     1 0.00000000000000E+00
     2 0.00000000000000E+00
     3 0.00000000000000E+00
     4 0.81353646667741E+00
     5 0.00000000000000E+00
     6 0.00000000000000E+00
     7 0.10482949788417E+00
     8 0.00000000000000E+00
     9 0.00000000000000E+00
    10 0.00000000000000E+00
    11 0.00000000000000E+00
    12 0.00000000000000E+00
    13 0.00000000000000E+00
    14 -.10177468355458E+00
    15 0.00000000000000E+00
    16 -.25210936296674E+00
    17 -.28638658530823E+00
    18 0.67689249200695E+00
    19 0.00000000000000E+00
    20 0.54262188789008E+00
    21 0.25210936296674E+00
    22 0.28638658530823E+00
    23 0.67689249200695E+00
    24 0.00000000000000E+00
    25 -.54262188789008E+00
 Sym=     9a1  
 Ene= 0.26293621616283E+01
 Spin= Alpha
 Occup= 0.000000
     1 0.15972278578249E+00
     2 0.84820455467400E+00
     3 0.60147113275640E+00
     4 0.00000000000000E+00
     5 0.00000000000000E+00
     6 0.63149802111106E+00
     7 0.00000000000000E+00
     8 0.00000000000000E+00
     9 0.17277123662355E+00
    10 -.11763399107850E+00
    11 0.17311468690699E+00
    12 -.55480695828496E-01
    13 0.00000000000000E+00
    14 0.00000000000000E+00
    15 0.00000000000000E+00
    16 -.43036122096837E+00
    17 -.17187769055598E+00
    18 0.71636072249478E+00
    19 0.00000000000000E+00
    20 0.49707701864080E+00
    21 -.43036122096837E+00
    22 -.17187769055598E+00
    23 -.71636072249478E+00
    24 0.00000000000000E+00
    25 0.49707701864080E+00
 Sym=     4b2  
 Ene= 0.33359507821156E+01
 Spin= Alpha
 Occup= 0.000000
     1 0.00000000000000E+00
     2 0.00000000000000E+00
     3 0.00000000000000E+00
     4 0.00000000000000E+00
     5 -.24238589402016E-02
     6 0.00000000000000E+00
     7 0.00000000000000E+00
     8 0.30324384690824E+00
     9 0.00000000000000E+00
    10 0.00000000000000E+00
    11 0.00000000000000E+00
    12 0.00000000000000E+00
    13 0.00000000000000E+00
    14 0.00000000000000E+00
    15 0.59766324417497E+00
    16 0.00000000000000E+00
    17 0.00000000000000E+00
    18 0.00000000000000E+00
    19 -.41690942835263E+00
    20 0.00000000000000E+00
    21 0.00000000000000E+00
    22 0.00000000000000E+00
    23 0.00000000000000E+00
    24 -.41690942835263E+00
    25 0.00000000000000E+00
 Sym=     2a2  
 Ene= 0.34000023005439E+01
 Spin= Alpha
 Occup= 0.000000
     1 0.00000000000000E+00
     2 0.00000000000000E+00
     3 0.00000000000000E+00
     4 0.00000000000000E+00
     5 0.00000000000000E+00
     6 0.00000000000000E+00
     7 0.00000000000000E+00
     8 0.00000000000000E+00
     9 0.00000000000000E+00
    10 0.00000000000000E+00
    11 0.00000000000000E+00
    12 0.00000000000000E+00
    13 0.61378588375285E+00
    14 0.00000000000000E+00
    15 0.00000000000000E+00
    16 0.00000000000000E+00
    17 0.00000000000000E+00
    18 0.00000000000000E+00
    19 -.39134379058779E+00
    20 0.00000000000000E+00
    21 0.00000000000000E+00
    22 0.00000000000000E+00
    23 0.00000000000000E+00
    24 0.39134379058779E+00
    25 0.00000000000000E+00
 Sym=    10a1  
 Ene= 0.35867824515214E+01
 Spin= Alpha
 Occup= 0.000000
     1 0.53588369466742E-02
     2 -.64268727541469E-01
     3 0.59795620732358E+00
     4 0.00000000000000E+00
     5 0.00000000000000E+00
     6 0.48964563246638E-01
     7 0.00000000000000E+00
     8 0.00000000000000E+00
     9 0.57430424960994E+00
    10 -.37981222973666E+00
    11 -.24601629698276E+00
    12 0.62582852671941E+00
    13 0.00000000000000E+00
    14 0.00000000000000E+00
    15 0.00000000000000E+00
    16 -.35096888369428E+00
    17 -.66642492974176E-01
    18 0.39754277538584E+00
    19 0.00000000000000E+00
    20 -.31316126364877E+00
    21 -.35096888369428E+00
    22 -.66642492974176E-01
    23 -.39754277538584E+00
    24 0.00000000000000E+00
    25 -.31316126364877E+00
 Sym=    11a1  
 Ene= 0.39222993418759E+01
 Spin= Alpha
 Occup= 0.000000
     1 0.87417690863312E-01
     2 0.24862590387905E+00
     3 0.19058556874257E+01
     4 0.00000000000000E+00
     5 0.00000000000000E+00
     6 0.42669300720271E+00
     7 0.00000000000000E+00
     8 0.00000000000000E+00
     9 0.87702969644671E+00
    10 0.55511092986494E+00
    11 -.60310142032356E+00
    12 0.47990490458626E-01
    13 0.00000000000000E+00
    14 0.00000000000000E+00
    15 0.00000000000000E+00
    16 -.11984099143772E+01
    17 -.22323988164054E+00
    18 0.61645934771719E+00
    19 0.00000000000000E+00
    20 0.51477747028016E+00
    21 -.11984099143772E+01
    22 -.22323988164054E+00
    23 -.61645934771719E+00
    24 0.00000000000000E+00
    25 0.51477747028016E+00
 Sym=     7b1  
 Ene= 0.42443468083290E+01
 Spin= Alpha
 Occup= 0.000000
     1 0.00000000000000E+00
     2 0.00000000000000E+00
     3 0.00000000000000E+00
     4 0.52983601531611E+00
     5 0.00000000000000E+00
     6 0.00000000000000E+00
     7 0.11177329767494E+01
     8 0.00000000000000E+00
     9 0.00000000000000E+00
    10 0.00000000000000E+00
    11 0.00000000000000E+00
    12 0.00000000000000E+00
    13 0.00000000000000E+00
    14 0.77567960038024E+00
    15 0.00000000000000E+00
    16 -.11117696721358E+01
    17 -.25574595192076E+00
    18 0.63258137408657E+00
    19 0.00000000000000E+00
    20 0.50460212059389E+00
    21 0.11117696721358E+01
    22 0.25574595192076E+00
    23 0.63258137408657E+00
    24 0.00000000000000E+00
    25 -.50460212059389E+00
