[Molden Format]
[Title]
 Molden file created by orca_2mkl for BaseName=orca

[Atoms] AU
C    1   6          0.0000000000         1.9993302497        -0.0000000000 
H    2   1          1.7479966739         3.0802535983        -0.0000000000 
H    3   1         -1.7479966739         3.0802535983         0.0000000000 
S    4  16          0.0000000000        -1.1357254065         0.0000000000 
[GTO]
  1 0
s   3 1.0 
       71.6168370000         2.7078144539
       13.0450960000         2.6188801561
        3.5305122000         0.8161905763
s   3 1.0 
        2.9412494000        -0.1600171900
        0.6834831000         0.2140359176
        0.2222899000         0.1615360892
p   3 1.0 
        2.9412494000         0.8560445069
        0.6834831000         0.5383037696
        0.2222899000         0.0852763521

  2 0
s   3 1.0 
        3.4252509100         0.2769343610
        0.6239137300         0.2678388518
        0.1688554000         0.0834736696

  3 0
s   3 1.0 
        3.4252509100         0.2769343610
        0.6239137300         0.2678388518
        0.1688554000         0.0834736696

  4 0
s   3 1.0 
      533.1257359000        12.2033699789
       97.1095183000        11.8025681567
       26.2816254200         3.6783449701
s   3 1.0 
       33.3297517300        -0.9883068514
        7.7451175210         1.3219402553
        2.5189525990         0.9976880306
p   3 1.0 
       33.3297517300        17.7980177973
        7.7451175210        11.1918711992
        2.5189525990         1.7729804317
s   3 1.0 
        2.0291942740        -0.2661187227
        0.5661400518         0.1049381267
        0.2215833792         0.2072515109
p   3 1.0 
        2.0291942740         0.0365504160
        0.5661400518         0.4166139282
        0.2215833792         0.1001162309

[5D]
[9G]
[MO]
 Sym=     1a
 Ene= -8.69232117578030E+01
 Spin= Alpha
 Occup= 2.000000
  1      -0.000081957769
  2       0.000685525577
  3       0.000000000000
  4      -0.000590383702
  5      -0.000000000000
  6       0.000010115575
  7       0.000010115575
  8       0.994028858224
  9       0.017506933349
 10       0.000000000000
 11       0.000199167634
 12       0.000000000000
 13      -0.002711473211
 14      -0.000000000000
 15      -0.000474398677
 16       0.000000000000
 Sym=     1a
 Ene= -9.72376658339594E+00
 Spin= Alpha
 Occup= 2.000000
  1       0.990564313678
  2       0.042855372044
  3      -0.000000000001
  4       0.000151884907
  5      -0.000000000000
  6      -0.009560423672
  7      -0.009560423675
  8      -0.000105131746
  9       0.000107056268
 10       0.000000000000
 11       0.000899973067
 12       0.000000000000
 13      -0.007039434113
 14      -0.000000000001
 15      -0.006910182988
 16      -0.000000000000
 Sym=     1a
 Ene= -7.31024857882033E+00
 Spin= Alpha
 Occup= 2.000000
  1       0.001746500433
  2      -0.013710905865
  3      -0.000000000002
  4       0.010649560607
  5       0.000000000000
  6      -0.000172450775
  7      -0.000172450771
  8      -0.366460058643
  9       1.043023443303
 10      -0.000000000001
 11       0.015840340258
 12       0.000000000000
 13       0.065534332331
 14       0.000000000003
 15       0.009882381663
 16       0.000000000000
 Sym=     1a
 Ene= -5.32996563802119E+00
 Spin= Alpha
 Occup= 2.000000
  1      -0.001571857791
  2       0.019187453539
  3       0.000000000001
  4      -0.013753933050
  5      -0.000000000001
  6      -0.000072314788
  7      -0.000072314788
  8      -0.007020818285
  9       0.020216225186
 10      -0.000000000020
 11      -0.979783865291
 12       0.000000000141
 13      -0.009505081393
 14      -0.000000000002
 15      -0.073309596372
 16       0.000000000009
 Sym=     1a
 Ene= -5.32802964874518E+00
 Spin= Alpha
 Occup= 2.000000
  1      -0.000000000000
  2       0.000000000003
  3      -0.000000000000
  4      -0.000000000002
  5       0.005723676816
  6       0.000000000000
  7      -0.000000000000
  8      -0.000000000001
  9       0.000000000003
 10      -0.000000000016
 11      -0.000000000141
 12      -0.982120288280
 13      -0.000000000002
 14      -0.000000000001
 15      -0.000000000010
 16      -0.062657088160
 Sym=     1a
 Ene= -5.30401775700391E+00
 Spin= Alpha
 Occup= 2.000000
  1       0.000000000000
  2      -0.000000000001
  3      -0.006409453156
  4      -0.000000000000
  5       0.000000000000
  6       0.000863157651
  7      -0.000863157651
  8       0.000000000000
  9      -0.000000000000
 10       0.982253340686
 11      -0.000000000020
 12      -0.000000000016
 13       0.000000000001
 14       0.062251507160
 15      -0.000000000002
 16      -0.000000000001
 Sym=     1a
 Ene= -6.40455961883636E-01
 Spin= Alpha
 Occup= 2.000000
  1       0.189935877139
  2      -0.539469397715
  3       0.000000000005
  4       0.096295515436
  5       0.000000000005
  6      -0.130884178345
  7      -0.130884178337
  8      -0.059672726271
  9       0.203836177669
 10      -0.000000000003
 11       0.069983972341
 12      -0.000000000003
 13      -0.523968619009
 14       0.000000000008
 15      -0.158352791218
 16       0.000000000009
 Sym=     1a
 Ene= -4.68536198600580E-01
 Spin= Alpha
 Occup= 2.000000
  1       0.124710339854
  2      -0.400569804914
  3       0.000000000252
  4      -0.303483005010
  5       0.000000000001
  6      -0.244822328160
  7      -0.244822328422
  8       0.066785404765
  9      -0.222390343226
 10      -0.000000000087
 11      -0.005154111464
 12      -0.000000000002
 13       0.676247850537
 14       0.000000000262
 15       0.015839762155
 16       0.000000000007
 Sym=     1a
 Ene= -3.50940821929684E-01
 Spin= Alpha
 Occup= 2.000000
  1       0.000000000148
  2      -0.000000000579
  3      -0.568764803589
  4       0.000000000698
  5      -0.000000000005
  6      -0.393775758296
  7       0.393775758639
  8       0.000000000109
  9      -0.000000000347
 10       0.055222207108
 11       0.000000000363
 12       0.000000000004
 13       0.000000001285
 14      -0.151539850028
 15      -0.000000001015
 16      -0.000000000012
 Sym=     1a
 Ene= -2.50427314689052E-01
 Spin= Alpha
 Occup= 2.000000
  1       0.053125055348
  2      -0.232799306364
  3       0.000000000925
  4       0.494057628974
  5       0.000000000012
  6       0.157076791329
  7       0.157076790193
  8       0.045328579253
  9      -0.142341279205
 10      -0.000000000324
 11       0.207047511007
 12      -0.000000000003
 13       0.575314184349
 14       0.000000000987
 15      -0.575804499039
 16       0.000000000008
 Sym=     1a
 Ene= -1.79888392613203E-01
 Spin= Alpha
 Occup= 2.000000
  1       0.000000000002
  2      -0.000000000001
  3       0.000000000002
  4       0.000000000013
  5      -0.638029553284
  6      -0.000000000003
  7      -0.000000000014
  8       0.000000000000
  9      -0.000000000001
 10      -0.000000000006
 11       0.000000000004
 12       0.227060325920
 13       0.000000000007
 14       0.000000000019
 15      -0.000000000011
 16      -0.698003494282
 Sym=     1a
 Ene= -6.58999463121092E-02
 Spin= Alpha
 Occup= 2.000000
  1       0.000000000063
  2      -0.000000000251
  3       0.027908595328
  4       0.000000000310
  5      -0.000000000014
  6       0.208222301264
  7      -0.208222301150
  8       0.000000000044
  9      -0.000000000140
 10       0.316940728842
 11       0.000000000143
 12       0.000000000003
 13       0.000000000543
 14      -1.010242325836
 15      -0.000000000390
 16      -0.000000000008
 Sym=     1a
 Ene= -4.19148527541574E-03
 Spin= Alpha
 Occup= 0.000000
  1      -0.000000000008
  2       0.000000000044
  3      -0.000000000050
  4       0.000000000024
  5      -0.786521090089
  6       0.000000000003
  7      -0.000000000064
  8      -0.000000000000
  9       0.000000000000
 10      -0.000000000004
 11       0.000000000002
 12      -0.236770156015
 13      -0.000000000000
 14       0.000000000014
 15      -0.000000000006
 16       0.779290462372
 Sym=     1a
 Ene= 2.93059379155198E-01
 Spin= Alpha
 Occup= 0.000000
  1       0.202216949296
  2      -1.182446488102
  3       0.000000003230
  4       0.487668180867
  5      -0.000000000017
  6       0.428251583218
  7       0.428251588114
  8       0.029440702758
  9      -0.082775777456
 10       0.000000000175
 11      -0.259830009209
 12      -0.000000000003
 13       0.509595965088
 14      -0.000000000646
 15       0.981406504480
 16       0.000000000011
 Sym=     1a
 Ene= 4.09630217146886E-01
 Spin= Alpha
 Occup= 0.000000
  1       0.108322366444
  2      -0.700869582011
  3       0.000000002655
  4      -1.012519655150
  5      -0.000000000029
  6       0.802158986568
  7       0.802158990535
  8      -0.014503899875
  9       0.038058093709
 10       0.000000000148
 11       0.108401688605
 12      -0.000000000005
 13      -0.284590627980
 14      -0.000000000545
 15      -0.437938974029
 16       0.000000000018
 Sym=     1a
 Ene= 4.38133619479363E-01
 Spin= Alpha
 Occup= 0.000000
  1      -0.000000000820
  2       0.000000004957
  3       1.145267391219
  4       0.000000000979
  5      -0.000000000036
  6      -0.863125990284
  7       0.863125984172
  8      -0.000000000048
  9       0.000000000141
 10       0.062784383940
 11       0.000000000492
 12      -0.000000000009
 13      -0.000000000763
 14      -0.231423160067
 15      -0.000000001784
 16       0.000000000029
