
                                 *****************
                                 * O   R   C   A *
                                 *****************

           --- An Ab Initio, DFT and Semiempirical electronic structure package ---

                  #######################################################
                  #                        -***-                        #
                  #  Department of molecular theory and spectroscopy    #
                  #              Directorship: Frank Neese              #
                  # Max Planck Institute for Chemical Energy Conversion #
                  #                  D-45470 Muelheim/Ruhr              #
                  #                       Germany                       #
                  #                                                     #
                  #                  All rights reserved                #
                  #                        -***-                        #
                  #######################################################


                         Program Version 4.0.1.2 - RELEASE -


 With contributions from (in alphabetic order):
   Daniel Aravena         : Magnetic Properties
   Michael Atanasov       : Ab Initio Ligand Field Theory
   Ute Becker             : Parallelization
   Martin Brehm           : Molecular dynamics
   Dmytro Bykov           : SCF Hessian
   Vijay G. Chilkuri      : MRCI spin determinant printing
   Dipayan Datta          : RHF DLPNO-CCSD density
   Achintya Kumar Dutta   : EOM-CC, STEOM-CC
   Dmitry Ganyushin       : Spin-Orbit,Spin-Spin,Magnetic field MRCI
   Yang Guo               : DLPNO-NEVPT2, CIM, IAO-localization
   Andreas Hansen         : Spin unrestricted coupled pair/coupled cluster methods
   Lee Huntington         : MR-EOM, pCC
   Robert Izsak           : Overlap fitted RIJCOSX, COSX-SCS-MP3, EOM
   Christian Kollmar      : KDIIS, OOCD, Brueckner-CCSD(T), CCSD density
   Simone Kossmann        : Meta GGA functionals, TD-DFT gradient, OOMP2, MP2 Hessian
   Martin Krupicka        : AUTO-CI
   Dagmar Lenk            : GEPOL surface
   Dimitrios Liakos       : Extrapolation schemes; parallel MDCI
   Dimitrios Manganas     : ROCIS; embedding schemes
   Dimitrios Pantazis     : SARC Basis sets
   Taras Petrenko         : DFT Hessian,TD-DFT gradient, ASA, ECA, R-Raman, ABS, FL, XAS/XES, NRVS
   Peter Pinski           : DLPNO-MP2
   Christoph Reimann      : Effective Core Potentials
   Marius Retegan         : Local ZFS, SOC
   Christoph Riplinger    : Optimizer, TS searches, QM/MM, DLPNO-CCSD(T), (RO)-DLPNO pert. Triples
   Tobias Risthaus        : Range-separated hybrids, TD-DFT gradient, RPA, STAB
   Michael Roemelt        : Restricted open shell CIS
   Masaaki Saitow         : Open-shell DLPNO
   Barbara Sandhoefer     : DKH picture change effects
   Kantharuban Sivalingam : CASSCF convergence, NEVPT2, FIC-MRCI
   Georgi Stoychev        : AutoAux
   Boris Wezisla          : Elementary symmetry handling
   Frank Wennmohs         : Technical directorship


 We gratefully acknowledge several colleagues who have allowed us to
 interface, adapt or use parts of their codes:
   Stefan Grimme, W. Hujo, H. Kruse,             : VdW corrections, initial TS optimization,
                  C. Bannwarth                     DFT functionals, gCP, sTDA/sTD-DF
   Ed Valeev                                     : LibInt (2-el integral package), F12 methods
   Garnet Chan, S. Sharma, J. Yang, R. Olivares  : DMRG
   Ulf Ekstrom                                   : XCFun DFT Library
   Mihaly Kallay                                 : mrcc  (arbitrary order and MRCC methods)
   Andreas Klamt, Michael Diedenhofen            : otool_cosmo (COSMO solvation model)
   Jiri Pittner, Ondrej Demel                    : Mk-CCSD
   Frank Weinhold                                : gennbo (NPA and NBO analysis)
   Christopher J. Cramer and Donald G. Truhlar   : smd solvation model


 Your calculation uses the libint2 library for the computation of 2-el integrals
 For citations please refer to: http://libint.valeyev.net

 This ORCA versions uses:
   CBLAS   interface :  Fast vector & matrix operations
   LAPACKE interface :  Fast linear algebra routines
   SCALAPACK package :  Parallel linear algebra routines


Your calculation utilizes the basis: STO-3G
   H-Ne       : W. J. Hehre, R. F. Stewart and J. A. Pople, J. Chem. Phys. 2657 (1969).
   Na-Ar      : W. J. Hehre, R. Ditchfield, R. F. Stewart and J. A. Pople, J. Chem. Phys. 2769 (1970).
   K,Ca,Ga-Kr : W. J. Pietro, B. A. Levy, W. J. Hehre and R. F. Stewart, J. Am. Chem. Soc. 19, 2225 (1980).
   Sc-Zn,Y-Cd : W. J. Pietro and W. J. Hehre, J. Comp. Chem. 4, 241 (1983).

Your calculation utilizes the auxiliary basis: def2/J
   F. Weigend, Phys. Chem. Chem. Phys. 8, 1057 (2006).

================================================================================
                                        WARNINGS
                       Please study these warnings very carefully!
================================================================================

Warning: TCutStore was < 0. Adjusted to Thresh (uncritical)
INFO   : Checking CIS options ...

INFO   : Since TDDFT/CIS Mode == RPA_AOINTS, the TAMMDANCOFF/TDA keyword is ignored. 


WARNING: CIS/ROCIS methods need fully converged wavefunctions
  ===> : Setting SCFConvForced true
         You can overwrite this default with %scf ConvForced false 


INFO   : the flag for use of LIBINT has been found!

================================================================================
                                       INPUT FILE
================================================================================
NAME = orca.inp
|  1> !  sto-3g  bp86  nousesym  
|  2> 
|  3> 
|  4> %output
|  5> Print[ P_Overlap ] 1
|  6> Print[ P_MOs ] 1
|  7> end
|  8> 
|  9> %tddft
| 10>   tda false
| 11>   triplets true
| 12>   nroots 2
| 13> end
| 14> 
| 15> * xyz 0 1
| 16> C          0.00000        1.05800       -0.00000
| 17> H          0.92500        1.63000       -0.00000
| 18> H         -0.92500        1.63000        0.00000
| 19> S          0.00000       -0.60100        0.00000
| 20> *
| 21> 
| 22>                          ****END OF INPUT****
================================================================================

                       ****************************
                       * Single Point Calculation *
                       ****************************

---------------------------------
CARTESIAN COORDINATES (ANGSTROEM)
---------------------------------
  C      0.000000    1.058000   -0.000000
  H      0.925000    1.630000   -0.000000
  H     -0.925000    1.630000    0.000000
  S      0.000000   -0.601000    0.000000

----------------------------
CARTESIAN COORDINATES (A.U.)
----------------------------
  NO LB      ZA    FRAG     MASS         X           Y           Z
   0 C     6.0000    0    12.011    0.000000    1.999330   -0.000000
   1 H     1.0000    0     1.008    1.747997    3.080254   -0.000000
   2 H     1.0000    0     1.008   -1.747997    3.080254    0.000000
   3 S    16.0000    0    32.060    0.000000   -1.135725    0.000000

--------------------------------
INTERNAL COORDINATES (ANGSTROEM)
--------------------------------
 C      0   0   0     0.000000000000     0.00000000     0.00000000
 H      1   0   0     1.087570227618     0.00000000     0.00000000
 H      1   2   0     1.087570227618   116.53649905     0.00000000
 S      1   2   3     1.659000000000   121.73175047   180.00000000

---------------------------
INTERNAL COORDINATES (A.U.)
---------------------------
 C      0   0   0     0.000000000000     0.00000000     0.00000000
 H      1   0   0     2.055209881603     0.00000000     0.00000000
 H      1   2   0     2.055209881603   116.53649905     0.00000000
 S      1   2   3     3.135055656175   121.73175047   180.00000000

---------------------
BASIS SET INFORMATION
---------------------
There are 3 groups of distinct atoms

 Group   1 Type C   : 6s3p contracted to 2s1p pattern {33/3}
 Group   2 Type H   : 3s contracted to 1s pattern {3}
 Group   3 Type S   : 9s6p contracted to 3s2p pattern {333/33}

Atom   0C    basis set group =>   1
Atom   1H    basis set group =>   2
Atom   2H    basis set group =>   2
Atom   3S    basis set group =>   3
-------------------------------
AUXILIARY BASIS SET INFORMATION
-------------------------------
There are 3 groups of distinct atoms

 Group   1 Type C   : 12s5p4d2f1g contracted to 6s4p3d1f1g pattern {711111/2111/211/2/1}
 Group   2 Type H   : 5s2p1d contracted to 3s1p1d pattern {311/2/1}
 Group   3 Type S   : 14s5p5d2f1g contracted to 8s4p3d1f1g pattern {71111111/2111/311/2/1}

Atom   0C    basis set group =>   1
Atom   1H    basis set group =>   2
Atom   2H    basis set group =>   2
Atom   3S    basis set group =>   3
------------------------------------------------------------------------------
                           ORCA GTO INTEGRAL CALCULATION
                           -- RI-GTO INTEGRALS CHOSEN --
------------------------------------------------------------------------------

                         BASIS SET STATISTICS AND STARTUP INFO

Gaussian basis set:
 # of primitive gaussian shells          ...   30
 # of primitive gaussian functions       ...   48
 # of contracted shells                  ...   10
 # of contracted basis functions         ...   16
 Highest angular momentum                ...    1
 Maximum contraction depth               ...    3
Auxiliary gaussian basis set:
 # of primitive gaussian shells          ...   67
 # of primitive gaussian functions       ...  179
 # of contracted shells                  ...   42
 # of contracted aux-basis functions     ...  122
 Highest angular momentum                ...    4
 Maximum contraction depth               ...    7
Ratio of auxiliary to basis functions    ...  7.62
Integral package used                  ... LIBINT
 One Electron integrals                  ... done
 Ordering auxiliary basis shells         ... done
 Integral threshhold             Thresh  ...  1.000e-10
 Primitive cut-off               TCut    ...  1.000e-11
 Pre-screening matrix                    ... done
 Shell pair data                         ... 
 Ordering of the shell pairs             ... done (   0.000 sec) 54 of 55 pairs
 Determination of significant pairs      ... done (   0.000 sec)
 Creation of shell pair data             ... done (   0.000 sec)
 Storage of shell pair data              ... done (   0.000 sec)
 Shell pair data done in (   0.000 sec)
 Computing two index integrals           ... done
 Cholesky decomposition of the V-matrix  ... done


Timings:
 Total evaluation time                   ...   0.106 sec (  0.002 min)
 One electron matrix time                ...   0.003 sec (  0.000 min) =  2.9%
 Schwartz matrix evaluation time         ...   0.082 sec (  0.001 min) = 77.4%
 Two index repulsion integral time       ...   0.001 sec (  0.000 min) =  0.5%
 Cholesky decomposition of V             ...   0.000 sec (  0.000 min) =  0.3%
 Three index repulsion integral time     ...   0.000 sec (  0.000 min) =  0.0%

-------------------------------------------------------------------------------
                                 ORCA SCF
-------------------------------------------------------------------------------

------------
SCF SETTINGS
------------
Hamiltonian:
 Density Functional     Method          .... DFT(GTOs)
 Exchange Functional    Exchange        .... B88
   X-Alpha parameter    XAlpha          ....  0.666667
   Becke's b parameter  XBeta           ....  0.004200
 Correlation Functional Correlation     .... P86
 LDA part of GGA corr.  LDAOpt          .... PW91-LDA
 Gradients option       PostSCFGGA      .... off
 RI-approximation to the Coulomb term is turned on
   Number of auxiliary basis functions  .... 122


General Settings:
 Integral files         IntName         .... orca
 Hartree-Fock type      HFTyp           .... RHF
 Total Charge           Charge          ....    0
 Multiplicity           Mult            ....    1
 Number of Electrons    NEL             ....   24
 Basis Dimension        Dim             ....   16
 Nuclear Repulsion      ENuc            ....     43.7577418974 Eh

Convergence Acceleration:
 DIIS                   CNVDIIS         .... on
   Start iteration      DIISMaxIt       ....    12
   Startup error        DIISStart       ....  0.200000
   # of expansion vecs  DIISMaxEq       ....     5
   Bias factor          DIISBfac        ....   1.050
   Max. coefficient     DIISMaxC        ....  10.000
 Newton-Raphson         CNVNR           .... off
 SOSCF                  CNVSOSCF        .... on
   Start iteration      SOSCFMaxIt      ....   150
   Startup grad/error   SOSCFStart      ....  0.003300
 Level Shifting         CNVShift        .... on
   Level shift para.    LevelShift      ....    0.2500
   Turn off err/grad.   ShiftErr        ....    0.0010
 Zerner damping         CNVZerner       .... off
 Static damping         CNVDamp         .... on
   Fraction old density DampFac         ....    0.7000
   Max. Damping (<1)    DampMax         ....    0.9800
   Min. Damping (>=0)   DampMin         ....    0.0000
   Turn off err/grad.   DampErr         ....    0.1000
 Fernandez-Rico         CNVRico         .... off

SCF Procedure:
 Maximum # iterations   MaxIter         ....   125
 SCF integral mode      SCFMode         .... Direct
   Integral package                     .... LIBINT
 Reset frequeny         DirectResetFreq ....    20
 Integral Threshold     Thresh          ....  1.000e-10 Eh
 Primitive CutOff       TCut            ....  1.000e-11 Eh

Convergence Tolerance:
 Convergence Check Mode ConvCheckMode   .... Total+1el-Energy
 Convergence forced     ConvForced      .... 1
 Energy Change          TolE            ....  1.000e-06 Eh
 1-El. energy change                    ....  1.000e-03 Eh
 Orbital Gradient       TolG            ....  5.000e-05
 Orbital Rotation angle TolX            ....  5.000e-05
 DIIS Error             TolErr          ....  1.000e-06


Diagonalization of the overlap matrix:
Smallest eigenvalue                        ... 2.618e-01
Time for diagonalization                   ...    0.000 sec
Threshold for overlap eigenvalues          ... 1.000e-08
Number of eigenvalues below threshold      ... 0
Time for construction of square roots      ...    0.000 sec
Total time needed                          ...    0.000 sec

--------------
OVERLAP MATRIX
--------------
                  0          1          2          3          4          5    
      0       1.000000   0.248362   0.000000   0.000000   0.000000   0.062630
      1       0.248362   1.000000   0.000000   0.000000   0.000000   0.492153
      2       0.000000   0.000000   1.000000   0.000000   0.000000   0.000000
      3       0.000000   0.000000   0.000000   1.000000   0.000000   0.398135
      4       0.000000   0.000000   0.000000   0.000000   1.000000   0.246198
      5       0.062630   0.492153   0.000000   0.398135   0.246198   1.000000
      6       0.062630   0.492153   0.000000  -0.398135   0.246198   0.151740
      7       0.000000   0.004194   0.000000   0.000000  -0.007291   0.000566
      8       0.000000   0.033535   0.000000   0.000000  -0.057137   0.004716
      9       0.000000   0.000000   0.007301   0.000000   0.000000   0.000000
     10       0.000000   0.000000   0.000000   0.007301   0.000000   0.001056
     11       0.000001   0.018424   0.000000   0.000000  -0.028728   0.002547
     12       0.025263   0.284724   0.000000   0.000000  -0.318484   0.071361
     13       0.000000   0.000000   0.154762   0.000000   0.000000   0.000000
     14       0.000000   0.000000   0.000000   0.154762   0.000000   0.037442
     15       0.042603   0.344563   0.000000   0.000000  -0.333027   0.090306
                  6          7          8          9         10         11    
      0       0.062630   0.000000   0.000000   0.000000   0.000000   0.000001
      1       0.492153   0.004194   0.033535   0.000000   0.000000   0.018424
      2       0.000000   0.000000   0.000000   0.007301   0.000000   0.000000
      3      -0.398135   0.000000   0.000000   0.000000   0.007301   0.000000
      4       0.246198  -0.007291  -0.057137   0.000000   0.000000  -0.028728
      5       0.151740   0.000566   0.004716   0.000000   0.001056   0.002547
      6       1.000000   0.000566   0.004716   0.000000  -0.001056   0.002547
      7       0.000566   1.000000   0.335524   0.000000   0.000000  -0.000000
      8       0.004716   0.335524   1.000000   0.000000   0.000000   0.000000
      9       0.000000   0.000000   0.000000   1.000000   0.000000   0.000000
     10      -0.001056   0.000000   0.000000   0.000000   1.000000   0.000000
     11       0.002547  -0.000000   0.000000   0.000000   0.000000   1.000000
     12       0.071361   0.014250   0.243098   0.000000   0.000000   0.000000
     13       0.000000   0.000000   0.000000   0.257359   0.000000   0.000000
     14      -0.037442   0.000000   0.000000   0.000000   0.257359   0.000000
     15       0.090306   0.000000   0.000000   0.000000   0.000000   0.257359
                  12         13         14         15    
      0       0.025263   0.000000   0.000000   0.042603
      1       0.284724   0.000000   0.000000   0.344563
      2       0.000000   0.154762   0.000000   0.000000
      3       0.000000   0.000000   0.154762   0.000000
      4      -0.318484   0.000000   0.000000  -0.333027
      5       0.071361   0.000000   0.037442   0.090306
      6       0.071361   0.000000  -0.037442   0.090306
      7       0.014250   0.000000   0.000000   0.000000
      8       0.243098   0.000000   0.000000   0.000000
      9       0.000000   0.257359   0.000000   0.000000
     10       0.000000   0.000000   0.257359   0.000000
     11       0.000000   0.000000   0.000000   0.257359
     12       1.000000   0.000000   0.000000  -0.000000
     13       0.000000   1.000000   0.000000   0.000000
     14       0.000000   0.000000   1.000000   0.000000
     15      -0.000000   0.000000   0.000000   1.000000
-------------------
DFT GRID GENERATION
-------------------

General Integration Accuracy     IntAcc      ...  4.340
Radial Grid Type                 RadialGrid  ... Gauss-Chebyshev
Angular Grid (max. acc.)         AngularGrid ... Lebedev-110
Angular grid pruning method      GridPruning ... 3 (G Style)
Weight generation scheme         WeightScheme... Becke
Basis function cutoff            BFCut       ...    1.0000e-10
Integration weight cutoff        WCut        ...    1.0000e-14
Grids for H and He will be reduced by one unit

# of grid points (after initial pruning)     ...   5050 (   0.0 sec)
# of grid points (after weights+screening)   ...   4977 (   0.0 sec)
nearest neighbour list constructed           ...    0.0 sec
Grid point re-assignment to atoms done       ...    0.0 sec
Grid point division into batches done        ...    0.0 sec
Reduced shell lists constructed in    0.0 sec

Total number of grid points                  ...     4977
Total number of batches                      ...       80
Average number of points per batch           ...       62
Average number of grid points per atom       ...     1244
Average number of shells per batch           ...     7.46 (74.57%)
Average number of basis functions per batch  ...    12.32 (77.01%)
Average number of large shells per batch     ...     6.81 (91.39%)
Average number of large basis fcns per batch ...    11.21 (90.98%)
Maximum spatial batch extension              ...  24.36, 21.09, 25.60 au
Average spatial batch extension              ...   5.07,  5.55,  6.54 au

Time for grid setup =    0.021 sec

------------------------------
INITIAL GUESS: MODEL POTENTIAL
------------------------------
Loading Hartree-Fock densities                     ... done
Calculating cut-offs                               ... done
Setting up the integral package                    ... done
Initializing the effective Hamiltonian             ... done
Starting the Coulomb interaction                   ... done (   0.0 sec)
Reading the grid                                   ... done
Mapping shells                                     ... done
Starting the XC term evaluation                    ... done (   0.0 sec)
  promolecular density results
     # of electrons  =     23.998065069
     EX              =    -30.697408469
     EC              =     -0.963141457
     EX+EC           =    -31.660549926
Transforming the Hamiltonian                       ... done (   0.0 sec)
Diagonalizing the Hamiltonian                      ... done (   0.0 sec)
Back transforming the eigenvectors                 ... done (   0.0 sec)
Now organizing SCF variables                       ... done
                      ------------------
                      INITIAL GUESS DONE (   0.1 sec)
                      ------------------
--------------
SCF ITERATIONS
--------------
ITER       Energy         Delta-E        Max-DP      RMS-DP      [F,P]     Damp
               ***  Starting incremental Fock matrix formation  ***
  0   -432.5786519236   0.000000000000 0.03643590  0.00469197  0.0483549 0.7000
  1   -432.5813170984  -0.002665174837 0.02804497  0.00361038  0.0290059 0.7000
                               ***Turning on DIIS***
  2   -432.5826773542  -0.001360255821 0.05454084  0.00745866  0.0148311 0.0000
  3   -432.5849294289  -0.002252074656 0.01650944  0.00211312  0.0095320 0.0000
  4   -432.5851655398  -0.000236110971 0.00464641  0.00071262  0.0060428 0.0000
                      *** Initiating the SOSCF procedure ***
                           *** Shutting down DIIS ***
                      *** Re-Reading the Fockian *** 
                      *** Removing any level shift *** 
ITER      Energy       Delta-E        Grad      Rot      Max-DP    RMS-DP
  5   -432.58520772  -0.0000421803  0.000388  0.000388  0.001981  0.000228
               *** Restarting incremental Fock matrix formation ***
  6   -432.58521215  -0.0000044283  0.000417  0.002375  0.005168  0.000460
  7   -432.58520616   0.0000059867  0.001506  0.001757  0.003822  0.000346
  8   -432.58521269  -0.0000065296  0.000090  0.000113  0.000320  0.000042
                 **** Energy Check signals convergence ****
              ***Rediagonalizing the Fockian in SOSCF/NRSCF***

               *****************************************************
               *                     SUCCESS                       *
               *           SCF CONVERGED AFTER   9 CYCLES          *
               *****************************************************

Setting up the final grid:

General Integration Accuracy     IntAcc      ...  4.670
Radial Grid Type                 RadialGrid  ... Gauss-Chebyshev
Angular Grid (max. acc.)         AngularGrid ... Lebedev-302
Angular grid pruning method      GridPruning ... 3 (G Style)
Weight generation scheme         WeightScheme... Becke
Basis function cutoff            BFCut       ...    1.0000e-10
Integration weight cutoff        WCut        ...    1.0000e-14
Grids for H and He will be reduced by one unit

# of grid points (after initial pruning)     ...  19846 (   0.0 sec)
# of grid points (after weights+screening)   ...  19542 (   0.0 sec)
nearest neighbour list constructed           ...    0.0 sec
Grid point re-assignment to atoms done       ...    0.0 sec
Grid point division into batches done        ...    0.1 sec
Reduced shell lists constructed in    0.1 sec

Total number of grid points                  ...    19542
Total number of batches                      ...      306
Average number of points per batch           ...       63
Average number of grid points per atom       ...     4886
Average number of shells per batch           ...     6.72 (67.23%)
Average number of basis functions per batch  ...    11.11 (69.42%)
Average number of large shells per batch     ...     6.08 (90.41%)
Average number of large basis fcns per batch ...    10.04 (90.38%)
Maximum spatial batch extension              ...  16.31, 20.57, 20.64 au
Average spatial batch extension              ...   3.29,  3.40,  3.87 au

Final grid set up in    0.1 sec
Final integration                            ... done (   0.1 sec)
Change in XC energy                          ...    -0.000512387
Integrated number of electrons               ...    24.000014772
Previous integrated no of electrons          ...    23.999441551

----------------
TOTAL SCF ENERGY
----------------

Total Energy       :         -432.58572510 Eh          -11771.25602 eV

Components:
Nuclear Repulsion  :           43.75774190 Eh            1190.70869 eV
Electronic Energy  :         -476.34346699 Eh          -12961.96471 eV
One Electron Energy:         -686.20152689 Eh          -18672.49284 eV
Two Electron Energy:          209.85805990 Eh            5710.52813 eV

Virial components:
Potential Energy   :         -859.31089002 Eh          -23383.03809 eV
Kinetic Energy     :          426.72516492 Eh           11611.78207 eV
Virial Ratio       :            2.01373380


DFT components:
N(Alpha)           :       12.000007385850 electrons
N(Beta)            :       12.000007385850 electrons
N(Total)           :       24.000014771699 electrons
E(X)               :      -30.972698437037 Eh       
E(C)               :       -0.996228171720 Eh       
E(XC)              :      -31.968926608757 Eh       

---------------
SCF CONVERGENCE
---------------

  Last Energy change         ...   -1.6747e-08  Tolerance :   1.0000e-06
  Last MAX-Density change    ...    1.2678e-04  Tolerance :   1.0000e-05
  Last RMS-Density change    ...    1.6829e-05  Tolerance :   1.0000e-06
  Last Orbital Gradient      ...    5.6166e-05  Tolerance :   5.0000e-05
  Last Orbital Rotation      ...    4.4567e-05  Tolerance :   5.0000e-05

             **** THE GBW FILE WAS UPDATED (orca.gbw) ****
             **** DENSITY FILE WAS UPDATED (orca.scfp.tmp) ****
             **** ENERGY FILE WAS UPDATED (orca.en.tmp) ****
----------------
ORBITAL ENERGIES
----------------

  NO   OCC          E(Eh)            E(eV) 
   0   2.0000     -86.923212     -2365.3008 
   1   2.0000      -9.723767      -264.5971 
   2   2.0000      -7.310249      -198.9220 
   3   2.0000      -5.329966      -145.0357 
   4   2.0000      -5.328030      -144.9831 
   5   2.0000      -5.304018      -144.3297 
   6   2.0000      -0.640456       -17.4277 
   7   2.0000      -0.468536       -12.7495 
   8   2.0000      -0.350941        -9.5496 
   9   2.0000      -0.250427        -6.8145 
  10   2.0000      -0.179888        -4.8950 
  11   2.0000      -0.065900        -1.7932 
  12   0.0000      -0.004191        -0.1141 
  13   0.0000       0.293059         7.9746 
  14   0.0000       0.409630        11.1466 
  15   0.0000       0.438134        11.9222 
------------------
MOLECULAR ORBITALS
------------------
                      0         1         2         3         4         5   
                 -86.92321  -9.72377  -7.31025  -5.32997  -5.32803  -5.30402
                   2.00000   2.00000   2.00000   2.00000   2.00000   2.00000
                  --------  --------  --------  --------  --------  --------
  0C   1s        -0.000082  0.990564  0.001747 -0.001572 -0.000000  0.000000
  0C   2s         0.000686  0.042855 -0.013711  0.019187  0.000000 -0.000000
  0C   1pz       -0.000000 -0.000000  0.000000 -0.000000  0.005724  0.000000
  0C   1px        0.000000 -0.000000 -0.000000  0.000000 -0.000000 -0.006409
  0C   1py       -0.000590  0.000152  0.010650 -0.013754 -0.000000 -0.000000
  1H   1s         0.000010 -0.009560 -0.000172 -0.000072  0.000000  0.000863
  2H   1s         0.000010 -0.009560 -0.000172 -0.000072 -0.000000 -0.000863
  3S   1s         0.994029 -0.000105 -0.366460 -0.007021 -0.000000  0.000000
  3S   2s         0.017507  0.000107  1.043023  0.020216  0.000000 -0.000000
  3S   1pz        0.000000  0.000000  0.000000  0.000000 -0.982120 -0.000000
  3S   1px        0.000000  0.000000 -0.000000 -0.000000 -0.000000  0.982253
  3S   1py        0.000199  0.000900  0.015840 -0.979784 -0.000000 -0.000000
  3S   3s        -0.002711 -0.007039  0.065534 -0.009505 -0.000000  0.000000
  3S   2pz        0.000000 -0.000000  0.000000  0.000000 -0.062657 -0.000000
  3S   2px       -0.000000 -0.000000  0.000000 -0.000000 -0.000000  0.062252
  3S   2py       -0.000474 -0.006910  0.009882 -0.073310 -0.000000 -0.000000
                      6         7         8         9        10        11   
                  -0.64046  -0.46854  -0.35094  -0.25043  -0.17989  -0.06590
                   2.00000   2.00000   2.00000   2.00000   2.00000   2.00000
                  --------  --------  --------  --------  --------  --------
  0C   1s         0.189936  0.124710  0.000000  0.053125  0.000000  0.000000
  0C   2s        -0.539469 -0.400570 -0.000000 -0.232799 -0.000000 -0.000000
  0C   1pz        0.000000  0.000000 -0.000000  0.000000 -0.638030 -0.000000
  0C   1px        0.000000  0.000000 -0.568765  0.000000  0.000000  0.027909
  0C   1py        0.096296 -0.303483  0.000000  0.494058  0.000000  0.000000
  1H   1s        -0.130884 -0.244822 -0.393776  0.157077 -0.000000  0.208222
  2H   1s        -0.130884 -0.244822  0.393776  0.157077 -0.000000 -0.208222
  3S   1s        -0.059673  0.066785  0.000000  0.045329  0.000000  0.000000
  3S   2s         0.203836 -0.222390 -0.000000 -0.142341 -0.000000 -0.000000
  3S   1pz       -0.000000 -0.000000  0.000000 -0.000000  0.227060  0.000000
  3S   1px       -0.000000 -0.000000  0.055222 -0.000000 -0.000000  0.316941
  3S   1py        0.069984 -0.005154  0.000000  0.207048  0.000000  0.000000
  3S   3s        -0.523969  0.676248  0.000000  0.575314  0.000000  0.000000
  3S   2pz        0.000000  0.000000 -0.000000  0.000000 -0.698003 -0.000000
  3S   2px        0.000000  0.000000 -0.151540  0.000000  0.000000 -1.010242
  3S   2py       -0.158353  0.015840 -0.000000 -0.575804 -0.000000 -0.000000
                     12        13        14        15   
                  -0.00419   0.29306   0.40963   0.43813
                   0.00000   0.00000   0.00000   0.00000
                  --------  --------  --------  --------
  0C   1s        -0.000000  0.202217  0.108322 -0.000000
  0C   2s         0.000000 -1.182446 -0.700870  0.000000
  0C   1pz       -0.786521 -0.000000 -0.000000 -0.000000
  0C   1px       -0.000000  0.000000  0.000000  1.145267
  0C   1py        0.000000  0.487668 -1.012520  0.000000
  1H   1s         0.000000  0.428252  0.802159 -0.863126
  2H   1s        -0.000000  0.428252  0.802159  0.863126
  3S   1s        -0.000000  0.029441 -0.014504 -0.000000
  3S   2s         0.000000 -0.082776  0.038058  0.000000
  3S   1pz       -0.236770 -0.000000 -0.000000 -0.000000
  3S   1px       -0.000000  0.000000  0.000000  0.062784
  3S   1py        0.000000 -0.259830  0.108402  0.000000
  3S   3s        -0.000000  0.509596 -0.284591 -0.000000
  3S   2pz        0.779290  0.000000  0.000000  0.000000
  3S   2px        0.000000 -0.000000 -0.000000 -0.231423
  3S   2py       -0.000000  0.981407 -0.437939 -0.000000



                    ********************************
                    * MULLIKEN POPULATION ANALYSIS *
                    ********************************

-----------------------
MULLIKEN ATOMIC CHARGES
-----------------------
   0 C :   -0.260875
   1 H :    0.079934
   2 H :    0.079934
   3 S :    0.101007
Sum of atomic charges:   -0.0000000

--------------------------------
MULLIKEN REDUCED ORBITAL CHARGES
--------------------------------
  0 C s       :     3.277231  s :     3.277231
      pz      :     0.949766  p :     2.983644
      px      :     1.031953
      py      :     1.001925
  1 H s       :     0.920066  s :     0.920066
  2 H s       :     0.920066  s :     0.920066
  3 S s       :     5.911894  s :     5.911894
      pz      :     3.050234  p :     9.987099
      px      :     3.951260
      py      :     2.985604


                     *******************************
                     * LOEWDIN POPULATION ANALYSIS *
                     *******************************

----------------------
LOEWDIN ATOMIC CHARGES
----------------------
   0 C :   -0.178636
   1 H :    0.038058
   2 H :    0.038058
   3 S :    0.102520

-------------------------------
LOEWDIN REDUCED ORBITAL CHARGES
-------------------------------
  0 C s       :     3.136350  s :     3.136350
      pz      :     0.954650  p :     3.042286
      px      :     1.049175
      py      :     1.038461
  1 H s       :     0.961942  s :     0.961942
  2 H s       :     0.961942  s :     0.961942
  3 S s       :     5.863915  s :     5.863915
      pz      :     3.045350  p :    10.033565
      px      :     3.952643
      py      :     3.035571


                      *****************************
                      * MAYER POPULATION ANALYSIS *
                      *****************************

  NA   - Mulliken gross atomic population
  ZA   - Total nuclear charge
  QA   - Mulliken gross atomic charge
  VA   - Mayer's total valence
  BVA  - Mayer's bonded valence
  FA   - Mayer's free valence

  ATOM       NA         ZA         QA         VA         BVA        FA
  0 C      6.2609     6.0000    -0.2609     3.9196     3.9196     0.0000
  1 H      0.9201     1.0000     0.0799     0.9936     0.9936    -0.0000
  2 H      0.9201     1.0000     0.0799     0.9936     0.9936    -0.0000
  3 S     15.8990    16.0000     0.1010     2.0842     2.0842     0.0000

  Mayer bond orders larger than 0.1
B(  0-C ,  1-H ) :   0.9510 B(  0-C ,  2-H ) :   0.9510 B(  0-C ,  3-S ) :   2.0177 


-------
TIMINGS
-------

Total SCF time: 0 days 0 hours 0 min 1 sec 

Total time                  ....       1.300 sec
Sum of individual times     ....       1.295 sec  ( 99.6%)

Fock matrix formation       ....       1.033 sec  ( 79.4%)
  Split-RI-J                ....       0.798 sec  ( 77.3% of F)
  XC integration            ....       0.230 sec  ( 22.3% of F)
    Basis function eval.    ....       0.098 sec  ( 42.5% of XC)
    Density eval.           ....       0.021 sec  (  9.3% of XC)
    XC-Functional eval.     ....       0.089 sec  ( 38.9% of XC)
    XC-Potential eval.      ....       0.010 sec  (  4.3% of XC)
Diagonalization             ....       0.001 sec  (  0.1%)
Density matrix formation    ....       0.000 sec  (  0.0%)
Population analysis         ....       0.000 sec  (  0.0%)
Initial guess               ....       0.102 sec  (  7.9%)
Orbital Transformation      ....       0.000 sec  (  0.0%)
Orbital Orthonormalization  ....       0.000 sec  (  0.0%)
DIIS solution               ....       0.000 sec  (  0.0%)
SOSCF solution              ....       0.021 sec  (  1.6%)
Grid generation             ....       0.138 sec  ( 10.6%)
------------------------------------------------------------------------------
                          ORCA TD-DFT CALCULATION
------------------------------------------------------------------------------

Input orbitals are from        ... orca.gbw
CI-vector output               ... orca.cis
Tamm-Dancoff approximation     ... deactivated
RPA-Integral strategy          ... AO-integrals
Integral handling              ... AO integral Direct
Max. core memory used          ... 512 MB
Reference state                ... RHF
Generation of triplets         ... on
Number of operators            ... 1
Orbital ranges used for CIS calculation:
 Operator 0:  Orbitals   6... 11  to  12... 15
XAS localization array:
 Operator 0:  Orbitals  -1... -1
-------------------
XC-INTEGRATION GRID
-------------------

General Integration Accuracy     IntAcc      ...  3.670
Radial Grid Type                 RadialGrid  ... Gauss-Chebyshev
Angular Grid (max. acc.)         AngularGrid ... Lebedev-50
Angular grid pruning method      GridPruning ... 3 (G Style)
Weight generation scheme         WeightScheme... Becke
Basis function cutoff            BFCut       ...    1.0000e-10
Integration weight cutoff        WCut        ...    1.0000e-14
Grids for H and He will be reduced by one unit

# of grid points (after initial pruning)     ...   2448 (   0.0 sec)
# of grid points (after weights+screening)   ...   2410 (   0.0 sec)
nearest neighbour list constructed           ...    0.0 sec
Grid point re-assignment to atoms done       ...    0.0 sec
Grid point division into batches done        ...    0.0 sec
Reduced shell lists constructed in    0.0 sec

Total number of grid points                  ...     2410
Total number of batches                      ...       40
Average number of points per batch           ...       60
Average number of grid points per atom       ...      602
Average number of shells per batch           ...     7.95 (79.51%)
Average number of basis functions per batch  ...    13.02 (81.40%)
Average number of large shells per batch     ...     7.51 (94.48%)
Average number of large basis fcns per batch ...    12.29 (94.38%)
Maximum spatial batch extension              ...  22.63, 18.90, 27.71 au
Average spatial batch extension              ...   6.05,  6.11,  7.59 au


---------------
TD-DFT XC SETUP
---------------

DFT calculation                         ... on
Name of the grid file                   ... orca.grid_cis.tmp
RI-approximation                        ... on
Aux-basis dimension                     ... 122
Exchange functional (SCF)               ... B88
Exchange functional (TD-DFT)            ... B88
   X-Alpha parameter    XAlpha (SCF)    ...  0.666667
   X-Alpha parameter    XAlpha (TD-DFT) ...  0.666667
   Becke's b parameter  XBeta (SCF)     ...  0.004200
   Becke's b parameter  XBeta (TD-DFT)  ...  0.004200
Correlation functional (SCF)            ... P86
Correlation functional (TD-DFT)         ... P86
 LDA part of GGA corr.  LDAOpt (SCF)    ... PW91-LDA
 LDA part of GGA corr.  LDAOpt (TD-DFT) ... PW91-LDA

Building densities             ... done
Calculating rho(r) on the grid ... done
Building xc-kernel on the grid ... done
                    *** TD-DFT CALCULATION INITIALIZED ***


-------------------
RPA-DIAGONALIZATION
-------------------

Dimension of the (A+B)(A-B) eigenvalue problem ...     24
Number of roots to be determined               ...      2
Maximum size of the expansion space            ...     24
Convergence tolerance for the residual         ...    1.000e-06
Convergence tolerance for the energies         ...    1.000e-06
Orthogonality tolerance                        ...    1.000e-14
Constructing the preconditioner                ... o.k.
Building the initial guess                     ... o.k.
Number of trial vectors determined             ...     24


                       ****Iteration    0****

   Memory handling for direct AO based RPA:
   Memory per vector needed      ...     1 MB
   Memory needed                 ...     0 MB
   Memory available              ...   512 MB
   Number of vectors per batch   ...   512
   Number of batches             ...     1
   Time for densities:     0.000
   Time for XC-Integration:     0.012
   Time for RI-J (Direct):     0.103
   Time for Sigma-Completion:     0.000
   Size of expansion space: 6
   Lowest Energy          :     0.075465308831
   Maximum Energy change  :     0.273903208247 (vector 1)
   Maximum residual norm  :     0.001027767289

                       ****Iteration    1****
   Time for densities:     0.000
   Time for XC-Integration:     0.007
   Time for RI-J (Direct):     0.081
   Time for Sigma-Completion:     0.000
   Size of expansion space: 8
   Lowest Energy          :     0.075463820143
   Maximum Energy change  :     0.000808265914 (vector 1)
   Maximum residual norm  :     0.000018064477

                       ****Iteration    2****
   Time for densities:     0.000
   Time for XC-Integration:     0.006
   Time for RI-J (Direct):     0.079
   Time for Sigma-Completion:     0.000
   Size of expansion space: 9
   Lowest Energy          :     0.075463820143
   Maximum Energy change  :     0.000022004041 (vector 1)
   Maximum residual norm  :     0.000000034310

      *** CONVERGENCE OF RESIDUAL NORM REACHED ***

Storing the converged CI vectors               ... orca.cis1

                 *** DAVIDSON DONE ***

Total time for solving the RPA problem:     0.295sec

--------------------------------
TD-DFT EXCITED STATES (SINGLETS)
--------------------------------

the weight of the individual excitations are printed if larger than 0.01

STATE  1:  E=   0.075464 au      2.053 eV    16562.4 cm**-1
    11a ->  12a  :     0.999996 

STATE  2:  E=   0.273073 au      7.431 eV    59932.6 cm**-1
     7a ->  12a  :     0.014262 
     9a ->  12a  :     0.984540 


                  ********************************
                  * Entering triplet calculation *
                  ********************************

-------------------
RPA-DIAGONALIZATION
-------------------

Dimension of the (A+B)(A-B) eigenvalue problem ...     24
Number of roots to be determined               ...      2
Maximum size of the expansion space            ...     24
Convergence tolerance for the residual         ...    1.000e-06
Convergence tolerance for the energies         ...    1.000e-06
Orthogonality tolerance                        ...    1.000e-14
Constructing the preconditioner                ... o.k.
Building the initial guess                     ... o.k.
Number of trial vectors determined             ...     24


                       ****Iteration    0****
                <<< Triplet sigma vectors requested >>>

   Memory handling for direct AO based RPA:
   Memory per vector needed      ...     1 MB
   Memory needed                 ...     0 MB
   Memory available              ...   512 MB
   Number of vectors per batch   ...   512
   Number of batches             ...     1
   Time for densities:     0.000
   Time for XC-Integration:     0.012
   Time for Sigma-Completion:     0.000
   Size of expansion space: 6
   Lowest Energy          :     0.045894273923
   Maximum Energy change  :     0.110055162133 (vector 1)
   Maximum residual norm  :     0.003874342407

                       ****Iteration    1****
   Time for densities:     0.000
   Time for XC-Integration:     0.007
   Time for Sigma-Completion:     0.000
   Size of expansion space: 8
   Lowest Energy          :     0.045874920740
   Maximum Energy change  :     0.002926034026 (vector 1)
   Maximum residual norm  :     0.000055880956

                       ****Iteration    2****
   Time for densities:     0.000
   Time for XC-Integration:     0.006
   Time for Sigma-Completion:     0.000
   Size of expansion space: 9
   Lowest Energy          :     0.045874920740
   Maximum Energy change  :     0.000047457913 (vector 1)
   Maximum residual norm  :     0.000004091548

                       ****Iteration    3****
   Time for densities:     0.000
   Time for XC-Integration:     0.006
   Time for Sigma-Completion:     0.000
   Size of expansion space: 10
   Lowest Energy          :     0.045874920740
   Maximum Energy change  :     0.000003267990 (vector 1)
   Maximum residual norm  :     0.000000600274

      *** CONVERGENCE OF RESIDUAL NORM REACHED ***

Storing the converged CI vectors               ... orca.cis3

                 *** DAVIDSON DONE ***

--------------------------------
TD-DFT EXCITED STATES (TRIPLETS)
--------------------------------

the weight of the individual excitations are printed if larger than 0.01

STATE  1:  E=   0.045875 au      1.248 eV    10068.4 cm**-1
    11a ->  12a  :     0.999987 

STATE  2:  E=   0.107078 au      2.914 eV    23501.0 cm**-1
    10a ->  12a  :     0.998626 


-------------------------
TD-DFT-EXCITATION SPECTRA
-------------------------

Center of mass = (  0.0000, -0.1343,  0.0000)
Calculating the Dipole integrals                  ... done
Transforming integrals                            ... done
Calculating the Linear Momentum integrals         ... done
Transforming integrals                            ... done
Calculating angular momentum integrals            ... done
Transforming integrals                            ... done

-----------------------------------------------------------------------------
         ABSORPTION SPECTRUM VIA TRANSITION ELECTRIC DIPOLE MOMENTS
-----------------------------------------------------------------------------
State   Energy  Wavelength   fosc         T2         TX        TY        TZ  
        (cm-1)    (nm)                  (au**2)     (au)      (au)      (au) 
-----------------------------------------------------------------------------
   1   16562.4    603.8   0.000000000   0.00000  -0.00000   0.00000   0.00000
   2   59932.6    166.9   0.023053422   0.12663   0.00000   0.00000   0.35586
   3   10068.4    993.2   spin forbidden (mult=3)
   4   23501.0    425.5   spin forbidden (mult=3)

-----------------------------------------------------------------------------
         ABSORPTION SPECTRUM VIA TRANSITION VELOCITY DIPOLE MOMENTS
-----------------------------------------------------------------------------
State   Energy  Wavelength   fosc         P2         PX        PY        PZ  
        (cm-1)    (nm)                  (au**2)     (au)      (au)      (au) 
-----------------------------------------------------------------------------
   1   16562.4    603.8   0.000000000   0.00000   0.00000  -0.00000  -0.00000
   2   59932.6    166.9   0.039523467   0.01619  -0.00000   0.00000  -0.12724
   3   10068.4    993.2   spin forbidden (mult=3)
   4   23501.0    425.5   spin forbidden (mult=3)

-------------------------------------------------------------------
                             CD SPECTRUM
-------------------------------------------------------------------
State   Energy Wavelength       R         MX        MY        MZ   
        (cm-1)   (nm)       (1e40*cgs)   (au)      (au)      (au)  
-------------------------------------------------------------------
   1   16562.4    603.8      0.00000  -0.00000   0.58910   0.00000
   2   59932.6    166.9     -0.00000  -0.82094   0.00000   0.00000
   3   10068.4    993.2 spin forbidden
   4   23501.0    425.5 spin forbidden

Total run time:        0.433 sec

           *** ORCA-CIS/TD-DFT FINISHED WITHOUT ERROR ***

-----------------------
CIS/TD-DFT TOTAL ENERGY
-----------------------

    E(SCF)  =   -432.585725095 Eh
    DE(CIS) =      0.075463820 Eh (Root  1)
    ----------------------------- ---------
    E(tot)  =   -432.510261275 Eh


-------------------------   --------------------
FINAL SINGLE POINT ENERGY      -432.510261274925
-------------------------   --------------------


                            ***************************************
                            *     ORCA property calculations      *
                            ***************************************

                                    ---------------------
                                    Active property flags
                                    ---------------------
   (+) Dipole Moment


------------------------------------------------------------------------------
                       ORCA ELECTRIC PROPERTIES CALCULATION
------------------------------------------------------------------------------

Dipole Moment Calculation                       ... on
Quadrupole Moment Calculation                   ... off
Polarizability Calculation                      ... off
GBWName                                         ... orca.gbw
Electron density file                           ... orca.scfp.tmp
The origin for moment calculation is the CENTER OF MASS  = ( 0.000000, -0.134259  0.000000)

-------------
DIPOLE MOMENT
-------------
                                X             Y             Z
Electronic contribution:     -0.00000      -2.94031       0.00000
Nuclear contribution   :      0.00000       3.20711       0.00000
                        -----------------------------------------
Total Dipole Moment    :     -0.00000       0.26679       0.00000
                        -----------------------------------------
Magnitude (a.u.)       :      0.26679
Magnitude (Debye)      :      0.67813


Timings for individual modules:

Sum of individual times         ...        1.881 sec (=   0.031 min)
GTO integral calculation        ...        0.121 sec (=   0.002 min)   6.5 %
SCF iterations                  ...        1.314 sec (=   0.022 min)  69.9 %
CIS module                      ...        0.446 sec (=   0.007 min)  23.7 %
                             ****ORCA TERMINATED NORMALLY****
TOTAL RUN TIME: 0 days 0 hours 0 minutes 1 seconds 994 msec
