[Molden Format]
[Title]
PV2P tddft b3lyp sv(p)                                                          
[Atoms] AU
 c     1    6 0.11688958059213E+02 -.24234207907726E+01 0.00000000000000E+00
 c     2    6 0.10006043236459E+02 -.35547484499799E+00 0.00000000000000E+00
 c     3    6 0.11047036293714E+02 0.21015472328507E+01 0.00000000000000E+00
 c     4    6 0.13661793596446E+02 0.24628821686646E+01 0.00000000000000E+00
 c     5    6 0.15307669788508E+02 0.38473925500776E+00 0.00000000000000E+00
 c     6    6 0.14307249150192E+02 -.20645047040309E+01 0.00000000000000E+00
 c     7    6 0.72823243472032E+01 -.86220532610562E+00 0.00000000000000E+00
 c     8    6 0.53975679262729E+01 0.88070958354726E+00 0.00000000000000E+00
 c     9    6 0.26798772639484E+01 0.36986139014094E+00 0.00000000000000E+00
 c    10    6 0.98190699422692E+00 0.24308493620266E+01 0.00000000000000E+00
 c    11    6 -.16277877340847E+01 0.20815141879125E+01 0.00000000000000E+00
 c    12    6 -.26798772639484E+01 -.36986139014094E+00 0.00000000000000E+00
 c    13    6 -.98190699422692E+00 -.24308493620266E+01 0.00000000000000E+00
 c    14    6 0.16277877340847E+01 -.20815141879125E+01 0.00000000000000E+00
 c    15    6 -.53975679262729E+01 -.88070958354726E+00 0.00000000000000E+00
 c    16    6 -.72823243472032E+01 0.86220532610562E+00 0.00000000000000E+00
 c    17    6 -.10006043236459E+02 0.35547484499799E+00 0.00000000000000E+00
 c    18    6 -.11688958059213E+02 0.24234207907726E+01 0.00000000000000E+00
 c    19    6 -.14307249150192E+02 0.20645047040309E+01 0.00000000000000E+00
 c    20    6 -.15307669788508E+02 -.38473925500776E+00 0.00000000000000E+00
 c    21    6 -.13661793596446E+02 -.24628821686646E+01 0.00000000000000E+00
 c    22    6 -.11047036293714E+02 -.21015472328507E+01 0.00000000000000E+00
 h    23    1 0.17358740693644E+02 0.67746759682872E+00 0.00000000000000E+00
 h    24    1 0.67764827654895E+01 -.28763511054372E+01 0.00000000000000E+00
 h    25    1 0.59010473501315E+01 0.28953636986416E+01 0.00000000000000E+00
 h    26    1 -.28582113519781E+01 0.37475154547642E+01 0.00000000000000E+00
 h    27    1 0.98055426614571E+01 0.37587801689341E+01 0.00000000000000E+00
 h    28    1 0.17447570122306E+01 0.43600897855139E+01 0.00000000000000E+00
 h    29    1 0.14427170178856E+02 0.43887210856796E+01 0.00000000000000E+00
 h    30    1 0.28582113519781E+01 -.37475154547642E+01 0.00000000000000E+00
 h    31    1 0.15571551774416E+02 -.37062040877115E+01 0.00000000000000E+00
 h    32    1 -.17447570122306E+01 -.43600897855139E+01 0.00000000000000E+00
 h    33    1 0.10918724880641E+02 -.43491652222368E+01 0.00000000000000E+00
 h    34    1 -.59010473501315E+01 -.28953636986416E+01 0.00000000000000E+00
 h    35    1 -.67764827654895E+01 0.28763511054372E+01 0.00000000000000E+00
 h    36    1 -.10918724880641E+02 0.43491652222368E+01 0.00000000000000E+00
 h    37    1 -.15571551774416E+02 0.37062040877115E+01 0.00000000000000E+00
 h    38    1 -.17358740693644E+02 -.67746759682872E+00 0.00000000000000E+00
 h    39    1 -.14427170178856E+02 -.43887210856796E+01 0.00000000000000E+00
 h    40    1 -.98055426614571E+01 -.37587801689341E+01 0.00000000000000E+00
[GTO]
    1 0
 s    5 1.00
 0.12384016938000E+04 0.55173650481097E-02
 0.18629004992000E+03 0.41088828555946E-01
 0.42251176346000E+02 0.18225382126490E+00
 0.11676557932000E+02 0.46828459437429E+00
 0.35930506482000E+01 0.44575817336002E+00
 s    1 1.00
 0.40245147363000E+00 0.10000000000000E+01
 s    1 1.00
 0.13090182668000E+00 0.10000000000000E+01
 p    3 1.00
 0.94680970621000E+01 0.56888332011037E-01
 0.20103545142000E+01 0.31294059336471E+00
 0.54771004707000E+00 0.76065016509135E+00
 p    1 1.00
 0.15268613795000E+00 0.10000000000000E+01
 d    1 1.00
 0.80000000000000E+00 0.10000000000000E+01
 
    2 0
 s    5 1.00
 0.12384016938000E+04 0.55173650481097E-02
 0.18629004992000E+03 0.41088828555946E-01
 0.42251176346000E+02 0.18225382126490E+00
 0.11676557932000E+02 0.46828459437429E+00
 0.35930506482000E+01 0.44575817336002E+00
 s    1 1.00
 0.40245147363000E+00 0.10000000000000E+01
 s    1 1.00
 0.13090182668000E+00 0.10000000000000E+01
 p    3 1.00
 0.94680970621000E+01 0.56888332011037E-01
 0.20103545142000E+01 0.31294059336471E+00
 0.54771004707000E+00 0.76065016509135E+00
 p    1 1.00
 0.15268613795000E+00 0.10000000000000E+01
 d    1 1.00
 0.80000000000000E+00 0.10000000000000E+01
 
    3 0
 s    5 1.00
 0.12384016938000E+04 0.55173650481097E-02
 0.18629004992000E+03 0.41088828555946E-01
 0.42251176346000E+02 0.18225382126490E+00
 0.11676557932000E+02 0.46828459437429E+00
 0.35930506482000E+01 0.44575817336002E+00
 s    1 1.00
 0.40245147363000E+00 0.10000000000000E+01
 s    1 1.00
 0.13090182668000E+00 0.10000000000000E+01
 p    3 1.00
 0.94680970621000E+01 0.56888332011037E-01
 0.20103545142000E+01 0.31294059336471E+00
 0.54771004707000E+00 0.76065016509135E+00
 p    1 1.00
 0.15268613795000E+00 0.10000000000000E+01
 d    1 1.00
 0.80000000000000E+00 0.10000000000000E+01
 
    4 0
 s    5 1.00
 0.12384016938000E+04 0.55173650481097E-02
 0.18629004992000E+03 0.41088828555946E-01
 0.42251176346000E+02 0.18225382126490E+00
 0.11676557932000E+02 0.46828459437429E+00
 0.35930506482000E+01 0.44575817336002E+00
 s    1 1.00
 0.40245147363000E+00 0.10000000000000E+01
 s    1 1.00
 0.13090182668000E+00 0.10000000000000E+01
 p    3 1.00
 0.94680970621000E+01 0.56888332011037E-01
 0.20103545142000E+01 0.31294059336471E+00
 0.54771004707000E+00 0.76065016509135E+00
 p    1 1.00
 0.15268613795000E+00 0.10000000000000E+01
 d    1 1.00
 0.80000000000000E+00 0.10000000000000E+01
 
    5 0
 s    5 1.00
 0.12384016938000E+04 0.55173650481097E-02
 0.18629004992000E+03 0.41088828555946E-01
 0.42251176346000E+02 0.18225382126490E+00
 0.11676557932000E+02 0.46828459437429E+00
 0.35930506482000E+01 0.44575817336002E+00
 s    1 1.00
 0.40245147363000E+00 0.10000000000000E+01
 s    1 1.00
 0.13090182668000E+00 0.10000000000000E+01
 p    3 1.00
 0.94680970621000E+01 0.56888332011037E-01
 0.20103545142000E+01 0.31294059336471E+00
 0.54771004707000E+00 0.76065016509135E+00
 p    1 1.00
 0.15268613795000E+00 0.10000000000000E+01
 d    1 1.00
 0.80000000000000E+00 0.10000000000000E+01
 
    6 0
 s    5 1.00
 0.12384016938000E+04 0.55173650481097E-02
 0.18629004992000E+03 0.41088828555946E-01
 0.42251176346000E+02 0.18225382126490E+00
 0.11676557932000E+02 0.46828459437429E+00
 0.35930506482000E+01 0.44575817336002E+00
 s    1 1.00
 0.40245147363000E+00 0.10000000000000E+01
 s    1 1.00
 0.13090182668000E+00 0.10000000000000E+01
 p    3 1.00
 0.94680970621000E+01 0.56888332011037E-01
 0.20103545142000E+01 0.31294059336471E+00
 0.54771004707000E+00 0.76065016509135E+00
 p    1 1.00
 0.15268613795000E+00 0.10000000000000E+01
 d    1 1.00
 0.80000000000000E+00 0.10000000000000E+01
 
    7 0
 s    5 1.00
 0.12384016938000E+04 0.55173650481097E-02
 0.18629004992000E+03 0.41088828555946E-01
 0.42251176346000E+02 0.18225382126490E+00
 0.11676557932000E+02 0.46828459437429E+00
 0.35930506482000E+01 0.44575817336002E+00
 s    1 1.00
 0.40245147363000E+00 0.10000000000000E+01
 s    1 1.00
 0.13090182668000E+00 0.10000000000000E+01
 p    3 1.00
 0.94680970621000E+01 0.56888332011037E-01
 0.20103545142000E+01 0.31294059336471E+00
 0.54771004707000E+00 0.76065016509135E+00
 p    1 1.00
 0.15268613795000E+00 0.10000000000000E+01
 d    1 1.00
 0.80000000000000E+00 0.10000000000000E+01
 
    8 0
 s    5 1.00
 0.12384016938000E+04 0.55173650481097E-02
 0.18629004992000E+03 0.41088828555946E-01
 0.42251176346000E+02 0.18225382126490E+00
 0.11676557932000E+02 0.46828459437429E+00
 0.35930506482000E+01 0.44575817336002E+00
 s    1 1.00
 0.40245147363000E+00 0.10000000000000E+01
 s    1 1.00
 0.13090182668000E+00 0.10000000000000E+01
 p    3 1.00
 0.94680970621000E+01 0.56888332011037E-01
 0.20103545142000E+01 0.31294059336471E+00
 0.54771004707000E+00 0.76065016509135E+00
 p    1 1.00
 0.15268613795000E+00 0.10000000000000E+01
 d    1 1.00
 0.80000000000000E+00 0.10000000000000E+01
 
    9 0
 s    5 1.00
 0.12384016938000E+04 0.55173650481097E-02
 0.18629004992000E+03 0.41088828555946E-01
 0.42251176346000E+02 0.18225382126490E+00
 0.11676557932000E+02 0.46828459437429E+00
 0.35930506482000E+01 0.44575817336002E+00
 s    1 1.00
 0.40245147363000E+00 0.10000000000000E+01
 s    1 1.00
 0.13090182668000E+00 0.10000000000000E+01
 p    3 1.00
 0.94680970621000E+01 0.56888332011037E-01
 0.20103545142000E+01 0.31294059336471E+00
 0.54771004707000E+00 0.76065016509135E+00
 p    1 1.00
 0.15268613795000E+00 0.10000000000000E+01
 d    1 1.00
 0.80000000000000E+00 0.10000000000000E+01
 
   10 0
 s    5 1.00
 0.12384016938000E+04 0.55173650481097E-02
 0.18629004992000E+03 0.41088828555946E-01
 0.42251176346000E+02 0.18225382126490E+00
 0.11676557932000E+02 0.46828459437429E+00
 0.35930506482000E+01 0.44575817336002E+00
 s    1 1.00
 0.40245147363000E+00 0.10000000000000E+01
 s    1 1.00
 0.13090182668000E+00 0.10000000000000E+01
 p    3 1.00
 0.94680970621000E+01 0.56888332011037E-01
 0.20103545142000E+01 0.31294059336471E+00
 0.54771004707000E+00 0.76065016509135E+00
 p    1 1.00
 0.15268613795000E+00 0.10000000000000E+01
 d    1 1.00
 0.80000000000000E+00 0.10000000000000E+01
 
   11 0
 s    5 1.00
 0.12384016938000E+04 0.55173650481097E-02
 0.18629004992000E+03 0.41088828555946E-01
 0.42251176346000E+02 0.18225382126490E+00
 0.11676557932000E+02 0.46828459437429E+00
 0.35930506482000E+01 0.44575817336002E+00
 s    1 1.00
 0.40245147363000E+00 0.10000000000000E+01
 s    1 1.00
 0.13090182668000E+00 0.10000000000000E+01
 p    3 1.00
 0.94680970621000E+01 0.56888332011037E-01
 0.20103545142000E+01 0.31294059336471E+00
 0.54771004707000E+00 0.76065016509135E+00
 p    1 1.00
 0.15268613795000E+00 0.10000000000000E+01
 d    1 1.00
 0.80000000000000E+00 0.10000000000000E+01
 
   12 0
 s    5 1.00
 0.12384016938000E+04 0.55173650481097E-02
 0.18629004992000E+03 0.41088828555946E-01
 0.42251176346000E+02 0.18225382126490E+00
 0.11676557932000E+02 0.46828459437429E+00
 0.35930506482000E+01 0.44575817336002E+00
 s    1 1.00
 0.40245147363000E+00 0.10000000000000E+01
 s    1 1.00
 0.13090182668000E+00 0.10000000000000E+01
 p    3 1.00
 0.94680970621000E+01 0.56888332011037E-01
 0.20103545142000E+01 0.31294059336471E+00
 0.54771004707000E+00 0.76065016509135E+00
 p    1 1.00
 0.15268613795000E+00 0.10000000000000E+01
 d    1 1.00
 0.80000000000000E+00 0.10000000000000E+01
 
   13 0
 s    5 1.00
 0.12384016938000E+04 0.55173650481097E-02
 0.18629004992000E+03 0.41088828555946E-01
 0.42251176346000E+02 0.18225382126490E+00
 0.11676557932000E+02 0.46828459437429E+00
 0.35930506482000E+01 0.44575817336002E+00
 s    1 1.00
 0.40245147363000E+00 0.10000000000000E+01
 s    1 1.00
 0.13090182668000E+00 0.10000000000000E+01
 p    3 1.00
 0.94680970621000E+01 0.56888332011037E-01
 0.20103545142000E+01 0.31294059336471E+00
 0.54771004707000E+00 0.76065016509135E+00
 p    1 1.00
 0.15268613795000E+00 0.10000000000000E+01
 d    1 1.00
 0.80000000000000E+00 0.10000000000000E+01
 
   14 0
 s    5 1.00
 0.12384016938000E+04 0.55173650481097E-02
 0.18629004992000E+03 0.41088828555946E-01
 0.42251176346000E+02 0.18225382126490E+00
 0.11676557932000E+02 0.46828459437429E+00
 0.35930506482000E+01 0.44575817336002E+00
 s    1 1.00
 0.40245147363000E+00 0.10000000000000E+01
 s    1 1.00
 0.13090182668000E+00 0.10000000000000E+01
 p    3 1.00
 0.94680970621000E+01 0.56888332011037E-01
 0.20103545142000E+01 0.31294059336471E+00
 0.54771004707000E+00 0.76065016509135E+00
 p    1 1.00
 0.15268613795000E+00 0.10000000000000E+01
 d    1 1.00
 0.80000000000000E+00 0.10000000000000E+01
 
   15 0
 s    5 1.00
 0.12384016938000E+04 0.55173650481097E-02
 0.18629004992000E+03 0.41088828555946E-01
 0.42251176346000E+02 0.18225382126490E+00
 0.11676557932000E+02 0.46828459437429E+00
 0.35930506482000E+01 0.44575817336002E+00
 s    1 1.00
 0.40245147363000E+00 0.10000000000000E+01
 s    1 1.00
 0.13090182668000E+00 0.10000000000000E+01
 p    3 1.00
 0.94680970621000E+01 0.56888332011037E-01
 0.20103545142000E+01 0.31294059336471E+00
 0.54771004707000E+00 0.76065016509135E+00
 p    1 1.00
 0.15268613795000E+00 0.10000000000000E+01
 d    1 1.00
 0.80000000000000E+00 0.10000000000000E+01
 
   16 0
 s    5 1.00
 0.12384016938000E+04 0.55173650481097E-02
 0.18629004992000E+03 0.41088828555946E-01
 0.42251176346000E+02 0.18225382126490E+00
 0.11676557932000E+02 0.46828459437429E+00
 0.35930506482000E+01 0.44575817336002E+00
 s    1 1.00
 0.40245147363000E+00 0.10000000000000E+01
 s    1 1.00
 0.13090182668000E+00 0.10000000000000E+01
 p    3 1.00
 0.94680970621000E+01 0.56888332011037E-01
 0.20103545142000E+01 0.31294059336471E+00
 0.54771004707000E+00 0.76065016509135E+00
 p    1 1.00
 0.15268613795000E+00 0.10000000000000E+01
 d    1 1.00
 0.80000000000000E+00 0.10000000000000E+01
 
   17 0
 s    5 1.00
 0.12384016938000E+04 0.55173650481097E-02
 0.18629004992000E+03 0.41088828555946E-01
 0.42251176346000E+02 0.18225382126490E+00
 0.11676557932000E+02 0.46828459437429E+00
 0.35930506482000E+01 0.44575817336002E+00
 s    1 1.00
 0.40245147363000E+00 0.10000000000000E+01
 s    1 1.00
 0.13090182668000E+00 0.10000000000000E+01
 p    3 1.00
 0.94680970621000E+01 0.56888332011037E-01
 0.20103545142000E+01 0.31294059336471E+00
 0.54771004707000E+00 0.76065016509135E+00
 p    1 1.00
 0.15268613795000E+00 0.10000000000000E+01
 d    1 1.00
 0.80000000000000E+00 0.10000000000000E+01
 
   18 0
 s    5 1.00
 0.12384016938000E+04 0.55173650481097E-02
 0.18629004992000E+03 0.41088828555946E-01
 0.42251176346000E+02 0.18225382126490E+00
 0.11676557932000E+02 0.46828459437429E+00
 0.35930506482000E+01 0.44575817336002E+00
 s    1 1.00
 0.40245147363000E+00 0.10000000000000E+01
 s    1 1.00
 0.13090182668000E+00 0.10000000000000E+01
 p    3 1.00
 0.94680970621000E+01 0.56888332011037E-01
 0.20103545142000E+01 0.31294059336471E+00
 0.54771004707000E+00 0.76065016509135E+00
 p    1 1.00
 0.15268613795000E+00 0.10000000000000E+01
 d    1 1.00
 0.80000000000000E+00 0.10000000000000E+01
 
   19 0
 s    5 1.00
 0.12384016938000E+04 0.55173650481097E-02
 0.18629004992000E+03 0.41088828555946E-01
 0.42251176346000E+02 0.18225382126490E+00
 0.11676557932000E+02 0.46828459437429E+00
 0.35930506482000E+01 0.44575817336002E+00
 s    1 1.00
 0.40245147363000E+00 0.10000000000000E+01
 s    1 1.00
 0.13090182668000E+00 0.10000000000000E+01
 p    3 1.00
 0.94680970621000E+01 0.56888332011037E-01
 0.20103545142000E+01 0.31294059336471E+00
 0.54771004707000E+00 0.76065016509135E+00
 p    1 1.00
 0.15268613795000E+00 0.10000000000000E+01
 d    1 1.00
 0.80000000000000E+00 0.10000000000000E+01
 
   20 0
 s    5 1.00
 0.12384016938000E+04 0.55173650481097E-02
 0.18629004992000E+03 0.41088828555946E-01
 0.42251176346000E+02 0.18225382126490E+00
 0.11676557932000E+02 0.46828459437429E+00
 0.35930506482000E+01 0.44575817336002E+00
 s    1 1.00
 0.40245147363000E+00 0.10000000000000E+01
 s    1 1.00
 0.13090182668000E+00 0.10000000000000E+01
 p    3 1.00
 0.94680970621000E+01 0.56888332011037E-01
 0.20103545142000E+01 0.31294059336471E+00
 0.54771004707000E+00 0.76065016509135E+00
 p    1 1.00
 0.15268613795000E+00 0.10000000000000E+01
 d    1 1.00
 0.80000000000000E+00 0.10000000000000E+01
 
   21 0
 s    5 1.00
 0.12384016938000E+04 0.55173650481097E-02
 0.18629004992000E+03 0.41088828555946E-01
 0.42251176346000E+02 0.18225382126490E+00
 0.11676557932000E+02 0.46828459437429E+00
 0.35930506482000E+01 0.44575817336002E+00
 s    1 1.00
 0.40245147363000E+00 0.10000000000000E+01
 s    1 1.00
 0.13090182668000E+00 0.10000000000000E+01
 p    3 1.00
 0.94680970621000E+01 0.56888332011037E-01
 0.20103545142000E+01 0.31294059336471E+00
 0.54771004707000E+00 0.76065016509135E+00
 p    1 1.00
 0.15268613795000E+00 0.10000000000000E+01
 d    1 1.00
 0.80000000000000E+00 0.10000000000000E+01
 
   22 0
 s    5 1.00
 0.12384016938000E+04 0.55173650481097E-02
 0.18629004992000E+03 0.41088828555946E-01
 0.42251176346000E+02 0.18225382126490E+00
 0.11676557932000E+02 0.46828459437429E+00
 0.35930506482000E+01 0.44575817336002E+00
 s    1 1.00
 0.40245147363000E+00 0.10000000000000E+01
 s    1 1.00
 0.13090182668000E+00 0.10000000000000E+01
 p    3 1.00
 0.94680970621000E+01 0.56888332011037E-01
 0.20103545142000E+01 0.31294059336471E+00
 0.54771004707000E+00 0.76065016509135E+00
 p    1 1.00
 0.15268613795000E+00 0.10000000000000E+01
 d    1 1.00
 0.80000000000000E+00 0.10000000000000E+01
 
   23 0
 s    3 1.00
 0.13010701000000E+02 0.33485484812989E-01
 0.19622572000000E+01 0.23472187088125E+00
 0.44453796000000E+00 0.81377028525955E+00
 s    1 1.00
 0.12194962000000E+00 0.10000000000000E+01
 
   24 0
 s    3 1.00
 0.13010701000000E+02 0.33485484812989E-01
 0.19622572000000E+01 0.23472187088125E+00
 0.44453796000000E+00 0.81377028525955E+00
 s    1 1.00
 0.12194962000000E+00 0.10000000000000E+01
 
   25 0
 s    3 1.00
 0.13010701000000E+02 0.33485484812989E-01
 0.19622572000000E+01 0.23472187088125E+00
 0.44453796000000E+00 0.81377028525955E+00
 s    1 1.00
 0.12194962000000E+00 0.10000000000000E+01
 
   26 0
 s    3 1.00
 0.13010701000000E+02 0.33485484812989E-01
 0.19622572000000E+01 0.23472187088125E+00
 0.44453796000000E+00 0.81377028525955E+00
 s    1 1.00
 0.12194962000000E+00 0.10000000000000E+01
 
   27 0
 s    3 1.00
 0.13010701000000E+02 0.33485484812989E-01
 0.19622572000000E+01 0.23472187088125E+00
 0.44453796000000E+00 0.81377028525955E+00
 s    1 1.00
 0.12194962000000E+00 0.10000000000000E+01
 
   28 0
 s    3 1.00
 0.13010701000000E+02 0.33485484812989E-01
 0.19622572000000E+01 0.23472187088125E+00
 0.44453796000000E+00 0.81377028525955E+00
 s    1 1.00
 0.12194962000000E+00 0.10000000000000E+01
 
   29 0
 s    3 1.00
 0.13010701000000E+02 0.33485484812989E-01
 0.19622572000000E+01 0.23472187088125E+00
 0.44453796000000E+00 0.81377028525955E+00
 s    1 1.00
 0.12194962000000E+00 0.10000000000000E+01
 
   30 0
 s    3 1.00
 0.13010701000000E+02 0.33485484812989E-01
 0.19622572000000E+01 0.23472187088125E+00
 0.44453796000000E+00 0.81377028525955E+00
 s    1 1.00
 0.12194962000000E+00 0.10000000000000E+01
 
   31 0
 s    3 1.00
 0.13010701000000E+02 0.33485484812989E-01
 0.19622572000000E+01 0.23472187088125E+00
 0.44453796000000E+00 0.81377028525955E+00
 s    1 1.00
 0.12194962000000E+00 0.10000000000000E+01
 
   32 0
 s    3 1.00
 0.13010701000000E+02 0.33485484812989E-01
 0.19622572000000E+01 0.23472187088125E+00
 0.44453796000000E+00 0.81377028525955E+00
 s    1 1.00
 0.12194962000000E+00 0.10000000000000E+01
 
   33 0
 s    3 1.00
 0.13010701000000E+02 0.33485484812989E-01
 0.19622572000000E+01 0.23472187088125E+00
 0.44453796000000E+00 0.81377028525955E+00
 s    1 1.00
 0.12194962000000E+00 0.10000000000000E+01
 
   34 0
 s    3 1.00
 0.13010701000000E+02 0.33485484812989E-01
 0.19622572000000E+01 0.23472187088125E+00
 0.44453796000000E+00 0.81377028525955E+00
 s    1 1.00
 0.12194962000000E+00 0.10000000000000E+01
 
   35 0
 s    3 1.00
 0.13010701000000E+02 0.33485484812989E-01
 0.19622572000000E+01 0.23472187088125E+00
 0.44453796000000E+00 0.81377028525955E+00
 s    1 1.00
 0.12194962000000E+00 0.10000000000000E+01
 
   36 0
 s    3 1.00
 0.13010701000000E+02 0.33485484812989E-01
 0.19622572000000E+01 0.23472187088125E+00
 0.44453796000000E+00 0.81377028525955E+00
 s    1 1.00
 0.12194962000000E+00 0.10000000000000E+01
 
   37 0
 s    3 1.00
 0.13010701000000E+02 0.33485484812989E-01
 0.19622572000000E+01 0.23472187088125E+00
 0.44453796000000E+00 0.81377028525955E+00
 s    1 1.00
 0.12194962000000E+00 0.10000000000000E+01
 
   38 0
 s    3 1.00
 0.13010701000000E+02 0.33485484812989E-01
 0.19622572000000E+01 0.23472187088125E+00
 0.44453796000000E+00 0.81377028525955E+00
 s    1 1.00
 0.12194962000000E+00 0.10000000000000E+01
 
   39 0
 s    3 1.00
 0.13010701000000E+02 0.33485484812989E-01
 0.19622572000000E+01 0.23472187088125E+00
 0.44453796000000E+00 0.81377028525955E+00
 s    1 1.00
 0.12194962000000E+00 0.10000000000000E+01
 
   40 0
 s    3 1.00
 0.13010701000000E+02 0.33485484812989E-01
 0.19622572000000E+01 0.23472187088125E+00
 0.44453796000000E+00 0.81377028525955E+00
 s    1 1.00
 0.12194962000000E+00 0.10000000000000E+01
 
[MO]
 Sym=    1a   
 Ene= -.10198605856268E+02
 Spin= Alpha
 Occup= 2.000000
    1 -.10610564940952E-02
    2 -.11064943246870E-03
    3 0.34761483353747E-03
    4 -.59574153788261E-04
    5 0.40632620638902E-04
    6 -.38562339127803E-15
    7 -.32629824069250E-03
    8 0.31676332618835E-03
    9 0.50512182166912E-14
   10 0.11011624619007E-04
   11 0.20661526995748E-04
   12 -.31673151614755E-04
   13 -.60444319628809E-04
   14 -.37877171183070E-15
   15 0.22653243529760E-15
   16 -.46256811185070E-01
   17 -.24409837529081E-02
   18 -.71695882168590E-02
   19 0.60806077321009E-04
   20 -.38395377387263E-04
   21 0.33007529091059E-15
   22 0.30913716736143E-02
   23 -.85466928421127E-03
   24 -.40628532769053E-14
   25 -.75095079097076E-04
   26 -.20828120592206E-04
   27 0.95923199689281E-04
   28 -.15738001550688E-05
   29 -.23116965001017E-15
   30 0.29823960811740E-15
   31 -.10384807238467E-02
   32 0.30008652096132E-05
   33 -.60523489430650E-03
   34 0.72237633129886E-04
   35 -.12613442705252E-05
   36 0.20306359524717E-17
   37 -.26037592214269E-02
   38 -.18554823309401E-02
   39 0.37850310987319E-14
   40 -.69489442212181E-04
   41 0.93360836670739E-04
   42 -.23871394458557E-04
   43 0.48770551293722E-04
   44 0.97478723108240E-17
   45 -.19517347767506E-15
   46 0.18196877229384E-03
   47 0.12639147001920E-03
   48 0.20323473797192E-02
   49 -.36851490147095E-04
   50 -.24285636386509E-04
   51 0.80754023257896E-15
   52 -.15678604943774E-02
   53 0.67908413456058E-03
   54 -.40661117668872E-14
   55 0.27490285556230E-04
   56 -.19487801321560E-04
   57 -.80024842346704E-05
   58 -.25772580234205E-05
   59 0.86768341917495E-16
   60 -.11052099062523E-16
   61 0.21023635782865E-03
   62 0.17189999371433E-03
   63 0.54613898228174E-03
   64 -.38128220406720E-04
   65 -.20531127962907E-04
   66 -.15508181350593E-14
   67 0.97155021255428E-04
   68 0.55293922350195E-03
   69 0.57550267861936E-14
   70 -.25364986054246E-05
   71 -.39563994675164E-05
   72 0.64928980729411E-05
   73 -.22665898329426E-05
   74 -.10919695111491E-15
   75 0.24739317815520E-15
   76 -.47486948271417E-04
   77 0.91240531238148E-04
   78 0.20313561848771E-03
   79 0.69989244065603E-06
   80 0.25622806610579E-04
   81 0.12482097491761E-14
   82 0.27682910701161E-03
   83 -.30563421738022E-03
   84 -.62457026915364E-14
   85 -.75688892702429E-05
   86 -.15356119845125E-05
   87 0.91045012547554E-05
   88 0.94600102230456E-05
   89 -.81592733234877E-16
   90 -.85044578985061E-16
   91 -.16026213073991E-02
   92 0.30414223531769E-04
   93 0.71555767272585E-02
   94 -.13541581721154E-03
   95 -.15788404188122E-03
   96 0.58980207012223E-15
   97 0.45306386447260E-02
   98 0.35135177062693E-02
   99 -.55016862516098E-15
  100 0.98863756417672E-04
  101 -.11525414306583E-03
  102 0.16390386648156E-04
  103 0.66427577168226E-04
  104 0.68169580942962E-17
  105 -.52562081090185E-16
  106 -.50773587941385E-02
  107 0.20786299282628E-02
  108 -.31530417934226E-02
  109 -.14367298565953E-02
  110 -.34760177771800E-03
  111 0.30783130905746E-15
  112 -.39997684886356E-02
  113 -.64815452715970E-03
  114 0.59824823653364E-15
  115 0.78953916560842E-03
  116 -.36439735556188E-03
  117 -.42514181004653E-03
  118 0.26014056267595E-03
  119 -.54087853439289E-17
  120 -.27139748083587E-15
  121 -.69706631137744E+00
  122 -.33608177545889E-01
  123 0.11481910543715E-01
  124 0.47611909775566E-03
  125 0.20411907432524E-03
  126 0.31981378812932E-15
  127 -.19043601701127E-02
  128 -.18733957020552E-02
  129 -.41917296427230E-14
  130 -.38668163920199E-03
  131 -.39471003026403E-03
  132 0.78139166946601E-03
  133 -.32949837939998E-04
  134 0.40872587224066E-15
  135 0.15879163884725E-15
  136 -.10766027978227E-01
  137 0.15808372715177E-02
  138 -.90236337467044E-02
  139 0.99707409357656E-03
  140 -.10884357925864E-02
  141 -.20956462348385E-15
  142 0.44114714707616E-02
  143 -.46176803952856E-02
  144 0.41804843443151E-14
  145 0.90890991945994E-04
  146 0.35744271028797E-03
  147 -.44833370223397E-03
  148 -.61336889042520E-03
  149 -.46446507275312E-15
  150 -.13990620870404E-15
  151 0.10991455793267E-01
  152 -.14636283036604E-02
  153 0.11230285381908E-01
  154 0.43657292860066E-03
  155 0.12161219820415E-02
  156 0.14548829733295E-14
  157 0.28165917358031E-02
  158 0.53397587620375E-02
  159 -.77141089968163E-14
  160 0.20592620477347E-03
  161 -.65498346418176E-03
  162 0.44905725940829E-03
  163 -.42567713929396E-03
  164 -.43231870274465E-15
  165 0.30371115170160E-15
  166 0.69706632265969E+00
  167 0.33608178074782E-01
  168 -.11481910966498E-01
  169 0.47611909735293E-03
  170 0.20411907723080E-03
  171 -.27171349726511E-14
  172 -.19043601861262E-02
  173 -.18733957926933E-02
  174 0.11435495569373E-13
  175 0.38668164588626E-03
  176 0.39471003579388E-03
  177 -.78139168168015E-03
  178 0.32949838239468E-04
  179 0.32861642608882E-15
  180 0.48013202675200E-16
  181 0.10766028172152E-01
  182 -.15808373057108E-02
  183 0.90236337762776E-02
  184 0.99707411490221E-03
  185 -.10884358141058E-02
  186 0.67187078783620E-15
  187 0.44114714370694E-02
  188 -.46176804049803E-02
  189 -.70401548576144E-14
  190 -.90890994331044E-04
  191 -.35744271394130E-03
  192 0.44833370827235E-03
  193 0.61336889997983E-03
  194 0.37566040864763E-16
  195 0.20568529825011E-15
  196 -.10991455587829E-01
  197 0.14636282717696E-02
  198 -.11230285137925E-01
  199 0.43657291721451E-03
  200 0.12161219560875E-02
  201 -.50344584435627E-15
  202 0.28165917424904E-02
  203 0.53397588312172E-02
  204 0.52720186186731E-14
  205 -.20592620062103E-03
  206 0.65498345517128E-03
  207 -.44905725455024E-03
  208 0.42567713292345E-03
  209 -.16447757727803E-15
  210 0.22060977944036E-15
  211 0.50773588838642E-02
  212 -.20786299618628E-02
  213 0.31530420224152E-02
  214 -.14367298771711E-02
  215 -.34760178400190E-03
  216 0.61508222425816E-15
  217 -.39997685851353E-02
  218 -.64815446450081E-03
  219 -.42173681481647E-14
  220 -.78953917772144E-03
  221 0.36439736116006E-03
  222 0.42514181656139E-03
  223 -.26014056746445E-03
  224 -.32132000655456E-15
  225 -.28146349388753E-15
  226 0.16026213215994E-02
  227 -.30414224235761E-04
  228 -.71555769574648E-02
  229 -.13541581989755E-03
  230 -.15788404526578E-03
  231 0.46073604187242E-15
  232 0.45306386593464E-02
  233 0.35135178206570E-02
  234 -.49007252815613E-15
  235 -.98863757930772E-04
  236 0.11525414450496E-03
  237 -.16390386574187E-04
  238 -.66427577098967E-04
  239 -.25992467009495E-15
  240 -.72574252144195E-16
  241 0.46256811581375E-01
  242 0.24409837727568E-02
  243 0.71695883542144E-02
  244 0.60806078088349E-04
  245 -.38395377136283E-04
  246 -.50338086848221E-15
  247 0.30913717234864E-02
  248 -.85466933193068E-03
  249 0.11345543185590E-14
  250 0.75095080161813E-04
  251 0.20828120718098E-04
  252 -.95923200879910E-04
  253 0.15738000182867E-05
  254 -.62788373080144E-16
  255 0.32605836408788E-16
  256 0.10610565078199E-02
  257 0.11064943725171E-03
  258 -.34761481855929E-03
  259 -.59574153184218E-04
  260 0.40632620644217E-04
  261 -.52711710314346E-15
  262 -.32629825288026E-03
  263 0.31676332348930E-03
  264 0.10132341618136E-14
  265 -.11011624597926E-04
  266 -.20661527405208E-04
  267 0.31673152003134E-04
  268 0.60444320344868E-04
  269 -.25116272405000E-16
  270 -.37156224837044E-15
  271 0.47486948494990E-04
  272 -.91240532097392E-04
  273 -.20313564016397E-03
  274 0.69989227109480E-06
  275 0.25622806885715E-04
  276 0.42732898639647E-15
  277 0.27682910386036E-03
  278 -.30563421803095E-03
  279 -.10361131438156E-14
  280 0.75688891845681E-05
  281 0.15356120306798E-05
  282 -.91045012152479E-05
  283 -.94600103776594E-05
  284 0.45036951926889E-16
  285 0.13341021131187E-15
  286 -.21023636134046E-03
  287 -.17189999654591E-03
  288 -.54613898698428E-03
  289 -.38128220993687E-04
  290 -.20531128112712E-04
  291 -.92769717379402E-15
  292 0.97155025220671E-04
  293 0.55293923438052E-03
  294 0.16730565831355E-14
  295 0.25364986177214E-05
  296 0.39563995303948E-05
  297 -.64928981481161E-05
  298 0.22665899101352E-05
  299 0.38022161915540E-15
  300 0.30855648236569E-16
  301 -.18196877645645E-03
  302 -.12639147243415E-03
  303 -.20323474092402E-02
  304 -.36851490460908E-04
  305 -.24285636787229E-04
  306 0.58850271700888E-15
  307 -.15678605201550E-02
  308 0.67908414681370E-03
  309 -.15538644733442E-14
  310 -.27490285987067E-04
  311 0.19487801567291E-04
  312 0.80024844197764E-05
  313 0.25772580648638E-05
  314 -.14027283684946E-15
  315 0.32289997278239E-15
  316 0.10384807347436E-02
  317 -.30008650632450E-05
  318 0.60523487051464E-03
  319 0.72237634191571E-04
  320 -.12613439903072E-05
  321 -.27559257142926E-15
  322 -.26037592686836E-02
  323 -.18554823724369E-02
  324 0.13535875233394E-14
  325 0.69489443203557E-04
  326 -.93360837958143E-04
  327 0.23871394754585E-04
  328 -.48770551983538E-04
  329 -.94153929994940E-16
  330 -.95588407374959E-16
  331 -.58753709341005E-04
  332 -.11576559105898E-03
  333 0.79255028487809E-03
  334 -.26843048723145E-03
  335 0.63475671989448E-03
  336 -.35035434327663E-03
  337 -.75190895164910E-03
  338 -.30937861501482E-02
  339 -.19225538748459E-03
  340 0.92637029399773E-03
  341 0.81633533858415E-03
  342 0.22477813327407E-02
  343 -.72122566248422E-04
  344 -.33015746515816E-03
  345 0.75190895253465E-03
  346 0.30937861340813E-02
  347 -.73452335844296E-04
  348 -.19432176168866E-03
  349 -.81633534333637E-03
  350 -.22477813430547E-02
  351 -.20389712911013E-04
  352 0.13462083629975E-03
  353 -.63475672488093E-03
  354 0.35035434132768E-03
  355 -.79255029864031E-03
  356 0.26843047810557E-03
  357 0.20389714259631E-04
  358 -.13462083644613E-03