 Entering Gaussian System, Link 0=g09
 Input=gaussian.com
 Output=gaussian.log
 Initial command:
 /opt/software/Gaussian/AMD/g09/l1.exe "/export/home/fplasser/programs/TheoDORE/TEST_JOBS/cclib/fa_fa_pbe/Gaussian/Gau-25102.inp" -scrdir="/export/home/fplasser/programs/TheoDORE/TEST_JOBS/cclib/fa_fa_pbe/Gaussian/"
 Entering Link 1 = /opt/software/Gaussian/AMD/g09/l1.exe PID=     25104.
  
 Copyright (c) 1988,1990,1992,1993,1995,1998,2003,2009,2013,
            Gaussian, Inc.  All Rights Reserved.
  
 This is part of the Gaussian(R) 09 program.  It is based on
 the Gaussian(R) 03 system (copyright 2003, Gaussian, Inc.),
 the Gaussian(R) 98 system (copyright 1998, Gaussian, Inc.),
 the Gaussian(R) 94 system (copyright 1995, Gaussian, Inc.),
 the Gaussian 92(TM) system (copyright 1992, Gaussian, Inc.),
 the Gaussian 90(TM) system (copyright 1990, Gaussian, Inc.),
 the Gaussian 88(TM) system (copyright 1988, Gaussian, Inc.),
 the Gaussian 86(TM) system (copyright 1986, Carnegie Mellon
 University), and the Gaussian 82(TM) system (copyright 1983,
 Carnegie Mellon University). Gaussian is a federally registered
 trademark of Gaussian, Inc.
  
 This software contains proprietary and confidential information,
 including trade secrets, belonging to Gaussian, Inc.
  
 This software is provided under written license and may be
 used, copied, transmitted, or stored only in accord with that
 written license.
  
 The following legend is applicable only to US Government
 contracts under FAR:
  
                    RESTRICTED RIGHTS LEGEND
  
 Use, reproduction and disclosure by the US Government is
 subject to restrictions as set forth in subparagraphs (a)
 and (c) of the Commercial Computer Software - Restricted
 Rights clause in FAR 52.227-19.
  
 Gaussian, Inc.
 340 Quinnipiac St., Bldg. 40, Wallingford CT 06492
  
  
 ---------------------------------------------------------------
 Warning -- This program may not be used in any manner that
 competes with the business of Gaussian, Inc. or will provide
 assistance to any competitor of Gaussian, Inc.  The licensee
 of this program is prohibited from giving any competitor of
 Gaussian, Inc. access to this program.  By using this program,
 the user acknowledges that Gaussian, Inc. is engaged in the
 business of creating and licensing software in the field of
 computational chemistry and represents and warrants to the
 licensee that it is not a competitor of Gaussian, Inc. and that
 it will not use this program in any manner prohibited above.
 ---------------------------------------------------------------
  

 Cite this work as:
 Gaussian 09, Revision D.01,
 M. J. Frisch, G. W. Trucks, H. B. Schlegel, G. E. Scuseria, 
 M. A. Robb, J. R. Cheeseman, G. Scalmani, V. Barone, B. Mennucci, 
 G. A. Petersson, H. Nakatsuji, M. Caricato, X. Li, H. P. Hratchian, 
 A. F. Izmaylov, J. Bloino, G. Zheng, J. L. Sonnenberg, M. Hada, 
 M. Ehara, K. Toyota, R. Fukuda, J. Hasegawa, M. Ishida, T. Nakajima, 
 Y. Honda, O. Kitao, H. Nakai, T. Vreven, J. A. Montgomery, Jr., 
 J. E. Peralta, F. Ogliaro, M. Bearpark, J. J. Heyd, E. Brothers, 
 K. N. Kudin, V. N. Staroverov, T. Keith, R. Kobayashi, J. Normand, 
 K. Raghavachari, A. Rendell, J. C. Burant, S. S. Iyengar, J. Tomasi, 
 M. Cossi, N. Rega, J. M. Millam, M. Klene, J. E. Knox, J. B. Cross, 
 V. Bakken, C. Adamo, J. Jaramillo, R. Gomperts, R. E. Stratmann, 
 O. Yazyev, A. J. Austin, R. Cammi, C. Pomelli, J. W. Ochterski, 
 R. L. Martin, K. Morokuma, V. G. Zakrzewski, G. A. Voth, 
 P. Salvador, J. J. Dannenberg, S. Dapprich, A. D. Daniels, 
 O. Farkas, J. B. Foresman, J. V. Ortiz, J. Cioslowski, 
 and D. J. Fox, Gaussian, Inc., Wallingford CT, 2013.
 
 ******************************************
 Gaussian 09:  AS64L-G09RevD.01 24-Apr-2013
                12-Nov-2014 
 ******************************************
 ---------------------------------------------------------------
 #p PBEPBE/6-31G* td=(singlets, nstates=10) pop=full iop(9/40=3)
 ---------------------------------------------------------------
 1/38=1/1;
 2/12=2,17=6,18=5,40=1/2;
 3/5=1,6=6,7=1,11=9,16=1,25=1,30=1,74=1009/1,2,8,3;
 4//1;
 5/5=2,38=5/2;
 8/6=1,10=2,108=10/1;
 9/40=3,41=10,42=1,48=1,70=2/14;
 6/7=3/1;
 99/5=1,9=1/99;
 Leave Link    1 at Wed Nov 12 12:05:51 2014, MaxMem=           0 cpu:         0.0
 (Enter /opt/software/Gaussian/AMD/g09/l101.exe)
 ----
 FaFa
 ----
 Symbolic Z-matrix:
 Charge =  0 Multiplicity = 1
 C                     1.75      0.        0.59225 
 C                    -1.75      0.        0.59225 
 O                     1.75      0.       -0.59537 
 O                    -1.75      0.       -0.59537 
 H                     1.75      0.9249    1.17073 
 H                    -1.75      0.9249    1.17073 
 H                     1.75     -0.9249    1.17073 
 H                    -1.75     -0.9249    1.17073 
 
 NAtoms=      8 NQM=        8 NQMF=       0 NMMI=      0 NMMIF=      0
                NMic=       0 NMicF=      0.
                    Isotopes and Nuclear Properties:
 (Nuclear quadrupole moments (NQMom) in fm**2, nuclear magnetic moments (NMagM)
  in nuclear magnetons)

  Atom         1           2           3           4           5           6           7           8
 IAtWgt=          12          12          16          16           1           1           1           1
 AtmWgt=  12.0000000  12.0000000  15.9949146  15.9949146   1.0078250   1.0078250   1.0078250   1.0078250
 NucSpn=           0           0           0           0           1           1           1           1
 AtZEff=   0.0000000   0.0000000   0.0000000   0.0000000   0.0000000   0.0000000   0.0000000   0.0000000
 NQMom=    0.0000000   0.0000000   0.0000000   0.0000000   0.0000000   0.0000000   0.0000000   0.0000000
 NMagM=    0.0000000   0.0000000   0.0000000   0.0000000   2.7928460   2.7928460   2.7928460   2.7928460
 AtZNuc=   6.0000000   6.0000000   8.0000000   8.0000000   1.0000000   1.0000000   1.0000000   1.0000000
 Leave Link  101 at Wed Nov 12 12:05:51 2014, MaxMem=    33554432 cpu:         0.1
 (Enter /opt/software/Gaussian/AMD/g09/l202.exe)
                          Input orientation:                          
 ---------------------------------------------------------------------
 Center     Atomic      Atomic             Coordinates (Angstroms)
 Number     Number       Type             X           Y           Z
 ---------------------------------------------------------------------
      1          6           0        1.750000    0.000000    0.592250
      2          6           0       -1.750000    0.000000    0.592250
      3          8           0        1.750000    0.000000   -0.595370
      4          8           0       -1.750000    0.000000   -0.595370
      5          1           0        1.750000    0.924900    1.170730
      6          1           0       -1.750000    0.924900    1.170730
      7          1           0        1.750000   -0.924900    1.170730
      8          1           0       -1.750000   -0.924900    1.170730
 ---------------------------------------------------------------------
                    Distance matrix (angstroms):
                    1          2          3          4          5
     1  C    0.000000
     2  C    3.500000   0.000000
     3  O    1.187620   3.696003   0.000000
     4  O    3.696003   1.187620   3.500000   0.000000
     5  H    1.090907   3.666071   1.993627   4.027971   0.000000
     6  H    3.666071   1.090907   4.027971   1.993627   3.500000
     7  H    1.090907   3.666071   1.993627   4.027971   1.849800
     8  H    3.666071   1.090907   4.027971   1.993627   3.958757
                    6          7          8
     6  H    0.000000
     7  H    3.958757   0.000000
     8  H    1.849800   3.500000   0.000000
 Stoichiometry    C2H4O2
 Framework group  C2V[SGV(C2O2),X(H4)]
 Deg. of freedom     6
 Full point group                 C2V     NOp   4
 Largest Abelian subgroup         C2V     NOp   4
 Largest concise Abelian subgroup C2V     NOp   4
                         Standard orientation:                         
 ---------------------------------------------------------------------
 Center     Atomic      Atomic             Coordinates (Angstroms)
 Number     Number       Type             X           Y           Z
 ---------------------------------------------------------------------
      1          6           0        0.000000    1.750000    0.521500
      2          6           0        0.000000   -1.750000    0.521500
      3          8           0        0.000000    1.750000   -0.666120
      4          8           0        0.000000   -1.750000   -0.666120
      5          1           0       -0.924900    1.750000    1.099980
      6          1           0       -0.924900   -1.750000    1.099980
      7          1           0        0.924900    1.750000    1.099980
      8          1           0        0.924900   -1.750000    1.099980
 ---------------------------------------------------------------------
 Rotational constants (GHZ):     17.5899079      2.6987624      2.4169554
 Leave Link  202 at Wed Nov 12 12:05:51 2014, MaxMem=    33554432 cpu:         0.0
 (Enter /opt/software/Gaussian/AMD/g09/l301.exe)
 Standard basis: 6-31G(d) (6D, 7F)
 Ernie: Thresh=  0.10000D-02 Tol=  0.10000D-05 Strict=F.
 There are    24 symmetry adapted cartesian basis functions of A1  symmetry.
 There are    10 symmetry adapted cartesian basis functions of A2  symmetry.
 There are    10 symmetry adapted cartesian basis functions of B1  symmetry.
 There are    24 symmetry adapted cartesian basis functions of B2  symmetry.
 There are    24 symmetry adapted basis functions of A1  symmetry.
 There are    10 symmetry adapted basis functions of A2  symmetry.
 There are    10 symmetry adapted basis functions of B1  symmetry.
 There are    24 symmetry adapted basis functions of B2  symmetry.
    68 basis functions,   128 primitive gaussians,    68 cartesian basis functions
    16 alpha electrons       16 beta electrons
       nuclear repulsion energy       100.5856574135 Hartrees.
 IExCor= 1009 DFT=T Ex=PBE Corr=PBE ExCW=0 ScaHFX=  0.000000
 ScaDFX=  1.000000  1.000000  1.000000  1.000000 ScalE2=  1.000000  1.000000
 IRadAn=      0 IRanWt=     -1 IRanGd=            0 ICorTp=0 IEmpDi=  4
 NAtoms=    8 NActive=    8 NUniq=    3 SFac= 4.00D+00 NAtFMM=   60 NAOKFM=F Big=F
 Integral buffers will be    131072 words long.
 Regular integral format.
 Two-electron integral symmetry is turned on.
 Leave Link  301 at Wed Nov 12 12:05:52 2014, MaxMem=    33554432 cpu:         0.1
 (Enter /opt/software/Gaussian/AMD/g09/l302.exe)
 NPDir=0 NMtPBC=     1 NCelOv=     1 NCel=       1 NClECP=     1 NCelD=      1
         NCelK=      1 NCelE2=     1 NClLst=     1 CellRange=     0.0.
 One-electron integrals computed using PRISM.
 One-electron integral symmetry used in STVInt
 NBasis=    68 RedAO= T EigKep=  7.69D-03  NBF=    24    10    10    24
 NBsUse=    68 1.00D-06 EigRej= -1.00D+00 NBFU=    24    10    10    24
 Precomputing XC quadrature grid using
 IXCGrd= 4 IRadAn=           0 IRanWt=          -1 IRanGd=           0 AccXCQ= 0.00D+00.
 Generated NRdTot=       0 NPtTot=           0 NUsed=           0 NTot=          32
 NSgBfM=    68    68    68    68    68 MxSgAt=     8 MxSgA2=     8.
 Leave Link  302 at Wed Nov 12 12:05:52 2014, MaxMem=    33554432 cpu:         0.2
 (Enter /opt/software/Gaussian/AMD/g09/l308.exe)
 Leave Link  308 at Wed Nov 12 12:05:52 2014, MaxMem=    33554432 cpu:         0.0
 (Enter /opt/software/Gaussian/AMD/g09/l303.exe)
 DipDrv:  MaxL=1.
 Leave Link  303 at Wed Nov 12 12:05:52 2014, MaxMem=    33554432 cpu:         0.0
 (Enter /opt/software/Gaussian/AMD/g09/l401.exe)
 ExpMin= 1.61D-01 ExpMax= 5.48D+03 ExpMxC= 8.25D+02 IAcc=1 IRadAn=         1 AccDes= 0.00D+00
 Harris functional with IExCor= 1009 and IRadAn=       1 diagonalized for initial guess.
 HarFok:  IExCor= 1009 AccDes= 0.00D+00 IRadAn=         1 IDoV= 1 UseB2=F ITyADJ=14
 ICtDFT=  3500011 ScaDFX=  1.000000  1.000000  1.000000  1.000000
 FoFCou: FMM=F IPFlag=           0 FMFlag=      100000 FMFlg1=           0
         NFxFlg=           0 DoJE=T BraDBF=F KetDBF=T FulRan=T
         wScrn=  0.000000 ICntrl=     500 IOpCl=  0 I1Cent=   200000004 NGrid=           0
         NMat0=    1 NMatS0=      1 NMatT0=    0 NMatD0=    1 NMtDS0=    0 NMtDT0=    0
 Petite list used in FoFCou.
 Harris En= -228.789907564285    
 JPrj=0 DoOrth=F DoCkMO=F.
 Initial guess orbital symmetries:
       Occupied  (B2) (A1) (B2) (A1) (A1) (B2) (A1) (B2) (B1) (A2)
                 (A1) (B2) (A1) (B2) (B1) (A2)
       Virtual   (A1) (B2) (A1) (B2) (B1) (A1) (A2) (B2) (A1) (B2)
                 (B1) (A1) (B2) (A1) (A2) (B2) (A1) (B1) (B2) (A2)
                 (A1) (A1) (B2) (B2) (B1) (A2) (A1) (B2) (B1) (A2)
                 (A1) (B2) (A1) (B2) (B1) (A2) (B1) (A2) (A1) (B2)
                 (A1) (B2) (A1) (B2) (B1) (A2) (A1) (B2) (A1) (B2)
                 (A1) (B2)
 The electronic state of the initial guess is 1-A1.
 Leave Link  401 at Wed Nov 12 12:05:52 2014, MaxMem=    33554432 cpu:         0.2
 (Enter /opt/software/Gaussian/AMD/g09/l502.exe)
 Closed shell SCF:
 Using DIIS extrapolation, IDIIS=  1040.
 Integral symmetry usage will be decided dynamically.
 Keep J ints in memory in symmetry-blocked form, NReq=3682319.
 IVT=       33634 IEndB=       33634 NGot=    33554432 MDV=    32802768
 LenX=    32802768 LenY=    32797703
 Requested convergence on RMS density matrix=1.00D-08 within 128 cycles.
 Requested convergence on MAX density matrix=1.00D-06.
 Requested convergence on             energy=1.00D-06.
 No special actions if energy rises.
 FoFCou: FMM=F IPFlag=           0 FMFlag=           0 FMFlg1=           0
         NFxFlg=           0 DoJE=F BraDBF=F KetDBF=F FulRan=T
         wScrn=  0.000000 ICntrl=     600 IOpCl=  0 I1Cent=           0 NGrid=           0
         NMat0=    1 NMatS0=   2346 NMatT0=    0 NMatD0=    1 NMtDS0=    0 NMtDT0=    0
 Petite list used in FoFCou.
 Integral accuracy reduced to 1.0D-05 until final iterations.

 Cycle   1  Pass 0  IDiag  1:
 E= -228.636869869266    
 DIIS: error= 4.35D-02 at cycle   1 NSaved=   1.
 NSaved= 1 IEnMin= 1 EnMin= -228.636869869266     IErMin= 1 ErrMin= 4.35D-02
 ErrMax= 4.35D-02  0.00D+00 EMaxC= 1.00D-01 BMatC= 1.01D-01 BMatP= 1.01D-01
 IDIUse=3 WtCom= 5.65D-01 WtEn= 4.35D-01
 Coeff-Com:  0.100D+01
 Coeff-En:   0.100D+01
 Coeff:      0.100D+01
 Gap=     0.082 Goal=   None    Shift=    0.000
 GapD=    0.082 DampG=0.500 DampE=0.500 DampFc=0.2500 IDamp=-1.
 Damping current iteration by 2.50D-01
 RMSDP=1.83D-02 MaxDP=2.31D-01              OVMax= 3.38D-01

 Cycle   2  Pass 0  IDiag  1:
 E= -228.660521011447     Delta-E=       -0.023651142181 Rises=F Damp=T
 DIIS: error= 1.14D-02 at cycle   2 NSaved=   2.
 NSaved= 2 IEnMin= 2 EnMin= -228.660521011447     IErMin= 2 ErrMin= 1.14D-02
 ErrMax= 1.14D-02  0.00D+00 EMaxC= 1.00D-01 BMatC= 8.58D-03 BMatP= 1.01D-01
 IDIUse=3 WtCom= 8.86D-01 WtEn= 1.14D-01
 Coeff-Com: -0.534D-01 0.105D+01
 Coeff-En:   0.271D+00 0.729D+00
 Coeff:     -0.165D-01 0.102D+01
 Gap=     0.115 Goal=   None    Shift=    0.000
 RMSDP=2.89D-03 MaxDP=4.14D-02 DE=-2.37D-02 OVMax= 2.72D-01

 Cycle   3  Pass 0  IDiag  1:
 E= -228.718723070203     Delta-E=       -0.058202058756 Rises=F Damp=F
 DIIS: error= 1.23D-02 at cycle   3 NSaved=   3.
 NSaved= 3 IEnMin= 3 EnMin= -228.718723070203     IErMin= 2 ErrMin= 1.14D-02
 ErrMax= 1.23D-02  0.00D+00 EMaxC= 1.00D-01 BMatC= 9.45D-03 BMatP= 8.58D-03
 IDIUse=2 WtCom= 0.00D+00 WtEn= 1.00D+00
 Coeff-En:   0.000D+00 0.000D+00 0.100D+01
 Coeff:      0.000D+00 0.000D+00 0.100D+01
 Gap=     0.114 Goal=   None    Shift=    0.000
 RMSDP=3.10D-03 MaxDP=5.30D-02 DE=-5.82D-02 OVMax= 8.98D-02

 Cycle   4  Pass 0  IDiag  1:
 E= -228.693170554062     Delta-E=        0.025552516141 Rises=F Damp=F
 DIIS: error= 3.46D-02 at cycle   4 NSaved=   4.
 NSaved= 4 IEnMin= 3 EnMin= -228.718723070203     IErMin= 2 ErrMin= 1.14D-02
 ErrMax= 3.46D-02  0.00D+00 EMaxC= 1.00D-01 BMatC= 4.08D-02 BMatP= 8.58D-03
 IDIUse=2 WtCom= 0.00D+00 WtEn= 1.00D+00
 Coeff-En:   0.000D+00 0.000D+00 0.749D+00 0.251D+00
 Coeff:      0.000D+00 0.000D+00 0.749D+00 0.251D+00
 Gap=     0.126 Goal=   None    Shift=    0.000
 RMSDP=1.78D-03 MaxDP=3.31D-02 DE= 2.56D-02 OVMax= 6.32D-02

 Cycle   5  Pass 0  IDiag  1:
 E= -228.726504713929     Delta-E=       -0.033334159867 Rises=F Damp=F
 DIIS: error= 4.78D-03 at cycle   5 NSaved=   5.
 NSaved= 5 IEnMin= 5 EnMin= -228.726504713929     IErMin= 5 ErrMin= 4.78D-03
 ErrMax= 4.78D-03  0.00D+00 EMaxC= 1.00D-01 BMatC= 1.89D-03 BMatP= 8.58D-03
 IDIUse=3 WtCom= 9.52D-01 WtEn= 4.78D-02
 Coeff-Com: -0.140D+00 0.206D+00 0.208D+00-0.115D+00 0.842D+00
 Coeff-En:   0.000D+00 0.000D+00 0.106D+00 0.000D+00 0.894D+00
 Coeff:     -0.133D+00 0.196D+00 0.203D+00-0.110D+00 0.844D+00
 Gap=     0.128 Goal=   None    Shift=    0.000
 RMSDP=7.41D-04 MaxDP=9.76D-03 DE=-3.33D-02 OVMax= 1.03D-02

 Cycle   6  Pass 0  IDiag  1:
 E= -228.728362025235     Delta-E=       -0.001857311306 Rises=F Damp=F
 DIIS: error= 3.79D-04 at cycle   6 NSaved=   6.
 NSaved= 6 IEnMin= 6 EnMin= -228.728362025235     IErMin= 6 ErrMin= 3.79D-04
 ErrMax= 3.79D-04  0.00D+00 EMaxC= 1.00D-01 BMatC= 4.32D-06 BMatP= 1.89D-03
 IDIUse=3 WtCom= 9.96D-01 WtEn= 3.79D-03
 Coeff-Com: -0.206D-01 0.255D-01-0.785D-02-0.209D-01 0.915D-01 0.932D+00
 Coeff-En:   0.000D+00 0.000D+00 0.000D+00 0.000D+00 0.000D+00 0.100D+01
 Coeff:     -0.205D-01 0.254D-01-0.782D-02-0.208D-01 0.912D-01 0.933D+00
 Gap=     0.127 Goal=   None    Shift=    0.000
 RMSDP=3.03D-05 MaxDP=3.79D-04 DE=-1.86D-03 OVMax= 7.40D-04

 Cycle   7  Pass 0  IDiag  1:
 E= -228.728366320236     Delta-E=       -0.000004295002 Rises=F Damp=F
 DIIS: error= 2.33D-05 at cycle   7 NSaved=   7.
 NSaved= 7 IEnMin= 7 EnMin= -228.728366320236     IErMin= 7 ErrMin= 2.33D-05
 ErrMax= 2.33D-05  0.00D+00 EMaxC= 1.00D-01 BMatC= 3.96D-08 BMatP= 4.32D-06
 IDIUse=1 WtCom= 1.00D+00 WtEn= 0.00D+00
 Coeff-Com:  0.263D-03-0.106D-02-0.637D-02 0.446D-03-0.743D-02 0.158D+00
 Coeff-Com:  0.856D+00
 Coeff:      0.263D-03-0.106D-02-0.637D-02 0.446D-03-0.743D-02 0.158D+00
 Coeff:      0.856D+00
 Gap=     0.127 Goal=   None    Shift=    0.000
 RMSDP=2.15D-06 MaxDP=2.77D-05 DE=-4.30D-06 OVMax= 3.92D-05

 Initial convergence to 1.0D-05 achieved.  Increase integral accuracy.
 Cycle   8  Pass 1  IDiag  1:
 E= -228.728358410564     Delta-E=        0.000007909672 Rises=F Damp=F
 DIIS: error= 2.09D-05 at cycle   1 NSaved=   1.
 NSaved= 1 IEnMin= 1 EnMin= -228.728358410564     IErMin= 1 ErrMin= 2.09D-05
 ErrMax= 2.09D-05  0.00D+00 EMaxC= 1.00D-01 BMatC= 8.70D-09 BMatP= 8.70D-09
 IDIUse=1 WtCom= 1.00D+00 WtEn= 0.00D+00
 Coeff-Com:  0.100D+01
 Coeff:      0.100D+01
 Gap=     0.127 Goal=   None    Shift=    0.000
 RMSDP=2.15D-06 MaxDP=2.77D-05 DE= 7.91D-06 OVMax= 1.16D-04

 Cycle   9  Pass 1  IDiag  1:
 E= -228.728358422632     Delta-E=       -0.000000012068 Rises=F Damp=F
 DIIS: error= 1.18D-05 at cycle   2 NSaved=   2.
 NSaved= 2 IEnMin= 2 EnMin= -228.728358422632     IErMin= 2 ErrMin= 1.18D-05
 ErrMax= 1.18D-05  0.00D+00 EMaxC= 1.00D-01 BMatC= 5.50D-09 BMatP= 8.70D-09
 IDIUse=1 WtCom= 1.00D+00 WtEn= 0.00D+00
 Coeff-Com:  0.409D+00 0.591D+00
 Coeff:      0.409D+00 0.591D+00
 Gap=     0.127 Goal=   None    Shift=    0.000
 RMSDP=2.03D-06 MaxDP=3.12D-05 DE=-1.21D-08 OVMax= 5.40D-05

 Cycle  10  Pass 1  IDiag  1:
 E= -228.728358420352     Delta-E=        0.000000002280 Rises=F Damp=F
 DIIS: error= 1.63D-05 at cycle   3 NSaved=   3.
 NSaved= 3 IEnMin= 2 EnMin= -228.728358422632     IErMin= 2 ErrMin= 1.18D-05
 ErrMax= 1.63D-05  0.00D+00 EMaxC= 1.00D-01 BMatC= 9.19D-09 BMatP= 5.50D-09
 IDIUse=1 WtCom= 1.00D+00 WtEn= 0.00D+00
 Coeff-Com:  0.861D-01 0.526D+00 0.388D+00
 Coeff:      0.861D-01 0.526D+00 0.388D+00
 Gap=     0.127 Goal=   None    Shift=    0.000
 RMSDP=1.00D-06 MaxDP=1.84D-05 DE= 2.28D-09 OVMax= 3.20D-05

 Cycle  11  Pass 1  IDiag  1:
 E= -228.728358427317     Delta-E=       -0.000000006965 Rises=F Damp=F
 DIIS: error= 1.75D-06 at cycle   4 NSaved=   4.
 NSaved= 4 IEnMin= 4 EnMin= -228.728358427317     IErMin= 4 ErrMin= 1.75D-06
 ErrMax= 1.75D-06  0.00D+00 EMaxC= 1.00D-01 BMatC= 2.22D-10 BMatP= 5.50D-09
 IDIUse=1 WtCom= 1.00D+00 WtEn= 0.00D+00
 Coeff-Com:  0.155D-02 0.233D+00 0.208D+00 0.558D+00
 Coeff:      0.155D-02 0.233D+00 0.208D+00 0.558D+00
 Gap=     0.127 Goal=   None    Shift=    0.000
 RMSDP=2.05D-07 MaxDP=2.95D-06 DE=-6.96D-09 OVMax= 4.56D-06

 Cycle  12  Pass 1  IDiag  1:
 E= -228.728358427519     Delta-E=       -0.000000000202 Rises=F Damp=F
 DIIS: error= 5.13D-07 at cycle   5 NSaved=   5.
 NSaved= 5 IEnMin= 5 EnMin= -228.728358427519     IErMin= 5 ErrMin= 5.13D-07
 ErrMax= 5.13D-07  0.00D+00 EMaxC= 1.00D-01 BMatC= 8.51D-12 BMatP= 2.22D-10
 IDIUse=1 WtCom= 1.00D+00 WtEn= 0.00D+00
 Coeff-Com: -0.806D-03 0.816D-01 0.608D-01 0.234D+00 0.624D+00
 Coeff:     -0.806D-03 0.816D-01 0.608D-01 0.234D+00 0.624D+00
 Gap=     0.127 Goal=   None    Shift=    0.000
 RMSDP=3.20D-08 MaxDP=4.91D-07 DE=-2.02D-10 OVMax= 9.47D-07

 Cycle  13  Pass 1  IDiag  1:
 E= -228.728358427528     Delta-E=       -0.000000000008 Rises=F Damp=F
 DIIS: error= 7.43D-08 at cycle   6 NSaved=   6.
 NSaved= 6 IEnMin= 6 EnMin= -228.728358427528     IErMin= 6 ErrMin= 7.43D-08
 ErrMax= 7.43D-08  0.00D+00 EMaxC= 1.00D-01 BMatC= 2.53D-13 BMatP= 8.51D-12
 IDIUse=1 WtCom= 1.00D+00 WtEn= 0.00D+00
 Coeff-Com: -0.315D-03 0.168D-01 0.807D-02 0.552D-01 0.213D+00 0.707D+00
 Coeff:     -0.315D-03 0.168D-01 0.807D-02 0.552D-01 0.213D+00 0.707D+00
 Gap=     0.127 Goal=   None    Shift=    0.000
 RMSDP=8.07D-09 MaxDP=9.26D-08 DE=-8.19D-12 OVMax= 1.72D-07

 SCF Done:  E(RPBE-PBE) =  -228.728358428     A.U. after   13 cycles
            NFock= 13  Conv=0.81D-08     -V/T= 2.0073
 KE= 2.270710139055D+02 PE=-7.378615924031D+02 EE= 1.814765626566D+02
 Leave Link  502 at Wed Nov 12 12:05:54 2014, MaxMem=    33554432 cpu:         2.3
 (Enter /opt/software/Gaussian/AMD/g09/l801.exe)
 ExpMin= 1.61D-01 ExpMax= 5.48D+03 ExpMxC= 8.25D+02 IAcc=3 IRadAn=         5 AccDes= 0.00D+00
 HarFok:  IExCor=  205 AccDes= 0.00D+00 IRadAn=         5 IDoV=-2 UseB2=F ITyADJ=14
 ICtDFT= 12500011 ScaDFX=  1.000000  1.000000  1.000000  1.000000
 Largest valence mixing into a core orbital is  3.84D-05
 Largest core mixing into a valence orbital is  5.41D-06
 Range of M.O.s used for correlation:     5    68
 NBasis=    68 NAE=    16 NBE=    16 NFC=     4 NFV=     0
 NROrb=     64 NOA=    12 NOB=    12 NVA=    52 NVB=    52
 Leave Link  801 at Wed Nov 12 12:05:55 2014, MaxMem=    33554432 cpu:         0.4
 (Enter /opt/software/Gaussian/AMD/g09/l914.exe)
 RHF ground state
 MDV=    33554432 DFT=T DoStab=F Mixed=F DoRPA=T DoScal=T NonHer=F
 Keep J ints in memory in symmetry-blocked form, NReq=5304282.
 FoFCou: FMM=F IPFlag=           0 FMFlag=           0 FMFlg1=           0
         NFxFlg=           0 DoJE=F BraDBF=F KetDBF=F FulRan=T
         wScrn=  0.000000 ICntrl=     600 IOpCl=  0 I1Cent=           0 NGrid=           0
         NMat0=    1 NMatS0=   2346 NMatT0=    0 NMatD0=    1 NMtDS0=    0 NMtDT0=    0
 Petite list used in FoFCou.
 Making orbital integer symmetry assigments:
 Orbital symmetries:
       Occupied  (B2) (A1) (B2) (A1) (A1) (B2) (A1) (B2) (B1) (A2)
                 (A1) (B2) (A1) (B2) (B1) (A2)
       Virtual   (A1) (B2) (A1) (B2) (B1) (A1) (A2) (B2) (A1) (B2)
                 (B1) (A1) (A2) (B2) (A1) (B2) (B1) (A1) (A2) (B2)
                 (A1) (A1) (B2) (B2) (B1) (A2) (A1) (B2) (B1) (A2)
                 (A1) (B2) (A1) (B2) (B1) (A2) (B1) (A2) (A1) (B2)
                 (A1) (B2) (A1) (B2) (B1) (A2) (A1) (B2) (A1) (B2)
                 (A1) (B2)
    40 initial guesses have been made.
 Convergence on wavefunction:    0.001000000000000
 Davidson Disk Diagonalization:  ConvIn= 1.00D-03 SkipCon=T Conv= 1.00D-03.
 Max sub-space:   200 roots to seek:    40 dimension of matrix:         1248
 Iteration     1 Dimension    40 NMult     0 NNew     40
 CISAX will form    40 AO SS matrices at one time.
 NMat=    40 NSing=    40 JSym2X=-1.
 New state      9 was old state     10
 New state     10 was old state     11
 Excitation Energies [eV] at current iteration:
 Root      1 :     3.588101602824812
 Root      2 :     3.638882831386268
 Root      3 :     4.252958800458624
 Root      4 :     4.294302557359022
 Root      5 :     7.824594196292022
 Root      6 :     7.853318060026909
 Root      7 :     7.966208516773996
 Root      8 :     8.033286293122577
 Root      9 :     8.482942535137107
 Root     10 :     8.506996746051113
 Root     11 :     8.761926939479418
 Root     12 :     8.836916847413390
 Root     13 :     9.499392270104432
 Root     14 :     9.503593569798973
 Root     15 :     9.837715939469149
 Root     16 :     9.902649859424780
 Root     17 :    10.166937361860640
 Root     18 :    10.190862162643590
 Root     19 :    10.510610950739910
 Root     20 :    10.551202296927390
 Root     21 :    10.560830833087120
 Root     22 :    10.609881565126700
 Root     23 :    10.754394740645910
 Root     24 :    10.767329449477850
 Root     25 :    11.797710706874750
 Root     26 :    11.817297794469770
 Root     27 :    11.866741368668230
 Root     28 :    12.138156209776340
 Root     29 :    12.345366940699170
 Root     30 :    12.675251638511170
 Root     31 :    12.747320480538670
 Root     32 :    12.750386280325700
 Root     33 :    13.205804527956490
 Root     34 :    13.236279342331400
 Root     35 :    13.577172887600110
 Root     36 :    13.914771142256370
 Root     37 :    14.190759431302370
 Root     38 :    14.342060624843440
 Root     39 :    14.610204051786890
 Root     40 :    15.914787136336630
 Iteration     2 Dimension    80 NMult    40 NNew     40
 CISAX will form    40 AO SS matrices at one time.
 NMat=    40 NSing=    40 JSym2X=-1.
 Root      1 not converged, maximum delta is    0.006370501280524
 Root      2 not converged, maximum delta is    0.007233935423958
 Root      3 not converged, maximum delta is    0.007242980277409
 Root      4 not converged, maximum delta is    0.006378763931340
 Root      5 not converged, maximum delta is    0.032028736105454
 Root      6 not converged, maximum delta is    0.004102229440403
 Root      7 not converged, maximum delta is    0.050232060685757
 Root      8 not converged, maximum delta is    0.053630618872477
 Root      9 not converged, maximum delta is    0.039172759598540
 Root     10 not converged, maximum delta is    0.036119731678664
 Excitation Energies [eV] at current iteration:
 Root      1 :     3.583491775769385   Change is   -0.004609827055427
 Root      2 :     3.634836863365530   Change is   -0.004045968020739
 Root      3 :     4.242138289212010   Change is   -0.010820511246614
 Root      4 :     4.284516776142863   Change is   -0.009785781216159
 Root      5 :     7.795135484673930   Change is   -0.029458711618093
 Root      6 :     7.851433456160049   Change is   -0.001884603866861
 Root      7 :     7.938605437021435   Change is   -0.027603079752561
 Root      8 :     8.010382507261522   Change is   -0.022903785861057
 Root      9 :     8.460981249031422   Change is   -0.021961286105686
 Root     10 :     8.488893019255181   Change is   -0.018103726795933
 Root     11 :     8.647088299880982   Change is   -0.114838639598435
 Root     12 :     8.674502373267813   Change is   -0.162414474145576
 Root     13 :     9.346217391505823   Change is   -0.157376178293150
 Root     14 :     9.346612336488626   Change is   -0.152779933615806
 Root     15 :     9.833159826085316   Change is   -0.004556113383832
 Root     16 :     9.898633278025159   Change is   -0.004016581399622
 Root     17 :     9.933861071561472   Change is   -0.233076290299165
 Root     18 :     9.951767119426979   Change is   -0.239095043216609
 Root     19 :    10.329857112588140   Change is   -0.437472336889708
 Root     20 :    10.330904456615170   Change is   -0.423490284030737
 Root     21 :    10.499713978674870   Change is   -0.010896972065039
 Root     22 :    10.529254557230130   Change is   -0.021947739697256
 Root     23 :    10.550752769200220   Change is   -0.010078063886892
 Root     24 :    10.586802553748510   Change is   -0.023079011378187
 Root     25 :    11.766604025859460   Change is   -0.031106681015293
 Root     26 :    11.789075303573360   Change is   -0.028222490896410
 Root     27 :    11.832771456754480   Change is   -2.357987974547889
 Root     28 :    11.838438498791270   Change is   -0.028302869876961
 Root     29 :    12.017077251860170   Change is   -2.593126799926714
 Root     30 :    12.165020072192440   Change is    0.026863862416106
 Root     31 :    12.335844050006030   Change is   -0.009522890693131
 Root     32 :    12.693944222842000   Change is    0.018692584330824
 Root     33 :    12.765190115398240   Change is    0.017869634859567
 Root     34 :    12.820431404438410   Change is    0.070045124112715
 Root     35 :    13.394710127440120   Change is    0.188905599483628
 Root     36 :    13.423042407594890   Change is    0.186763065263494
 Root     37 :    13.533570837890750   Change is   -0.808489786952692
 Root     38 :    13.561848684484780   Change is   -0.015324203115337
 Root     39 :    13.912191179930120   Change is   -0.002579962326258
 Root     40 :    14.457274327579090
 Iteration     3 Dimension    90 NMult    80 NNew     10
 CISAX will form    10 AO SS matrices at one time.
 NMat=    10 NSing=    10 JSym2X=-1.
 Root      1 has converged.
 Root      2 has converged.
 Root      3 has converged.
 Root      4 has converged.
 Root      5 not converged, maximum delta is    0.001390418123215
 Root      6 has converged.
 Root      7 has converged.
 Root      8 not converged, maximum delta is    0.001073399634167
 Root      9 not converged, maximum delta is    0.001909896754917
 Root     10 not converged, maximum delta is    0.001937167138551
 Excitation Energies [eV] at current iteration:
 Root      1 :     3.583416513216015   Change is   -0.000075262553371
 Root      2 :     3.634758423119566   Change is   -0.000078440245964
 Root      3 :     4.241953056492151   Change is   -0.000185232719859
 Root      4 :     4.284336314670441   Change is   -0.000180461472421
 Root      5 :     7.793466760122683   Change is   -0.001668724551247
 Root      6 :     7.851329564302503   Change is   -0.000103891857545
 Root      7 :     7.938427061675585   Change is   -0.000178375345851
 Root      8 :     8.009856041412375   Change is   -0.000526465849146
 Root      9 :     8.459846343193458   Change is   -0.001134905837964
 Root     10 :     8.487891264579362   Change is   -0.001001754675818
 Iteration     4 Dimension    94 NMult    90 NNew      4
 CISAX will form     4 AO SS matrices at one time.
 NMat=     4 NSing=     4 JSym2X=-1.
 Root      1 has converged.
 Root      2 has converged.
 Root      3 has converged.
 Root      4 has converged.
 Root      5 has converged.
 Root      6 has converged.
 Root      7 has converged.
 Root      8 has converged.
 Root      9 has converged.
 Root     10 has converged.
 Excitation Energies [eV] at current iteration:
 Root      1 :     3.583416513216015   Change is    0.000000000000000
 Root      2 :     3.634756577043558   Change is   -0.000001846076008
 Root      3 :     4.241951509251566   Change is   -0.000001547240586
 Root      4 :     4.284336314670461   Change is    0.000000000000019
 Root      5 :     7.793277192790084   Change is   -0.000189567332599
 Root      6 :     7.851329556671222   Change is   -0.000000007631281
 Root      7 :     7.938427061675606   Change is    0.000000000000021
 Root      8 :     8.009801907830944   Change is   -0.000054133581430
 Root      9 :     8.459722473903978   Change is   -0.000123869289479
 Root     10 :     8.487780910461248   Change is   -0.000110354118115
 Convergence achieved on expansion vectors.
 ***********************************************************************
 Excited states from <AA,BB:AA,BB> singles matrix:
 ***********************************************************************
 
 1PDM for each excited state written to RWF  633
 Ground to excited state transition densities written to RWF  633
 Ground to excited state transition electric dipole moments (Au):
       state          X           Y           Z        Dip. S.      Osc.
         1         0.0000      0.0000      0.0000      0.0000      0.0000
         2        -0.0090      0.0000      0.0000      0.0001      0.0000
         3         0.0188      0.0000      0.0000      0.0004      0.0000
         4         0.0000      0.0000      0.0000      0.0000      0.0000
         5         0.0000      0.2434      0.0000      0.0593      0.0113
         6         0.0000      0.0000     -0.0549      0.0030      0.0006
         7         0.0000      0.0000      0.0000      0.0000      0.0000
         8        -0.4872      0.0000      0.0000      0.2374      0.0466
         9         0.0000     -0.0329      0.0000      0.0011      0.0002
        10         0.0000      0.0000      0.0143      0.0002      0.0000
 Ground to excited state transition velocity dipole moments (Au):
       state          X           Y           Z        Dip. S.      Osc.
         1         0.0000      0.0000      0.0000      0.0000      0.0000
         2         0.0028      0.0000      0.0000      0.0000      0.0000
         3        -0.0032      0.0000      0.0000      0.0000      0.0000
         4         0.0000      0.0000      0.0000      0.0000      0.0000
         5         0.0000     -0.0622      0.0000      0.0039      0.0090
         6         0.0000      0.0000      0.0105      0.0001      0.0003
         7         0.0000      0.0000      0.0000      0.0000      0.0000
         8         0.1233      0.0000      0.0000      0.0152      0.0344
         9         0.0000      0.0287      0.0000      0.0008      0.0018
        10         0.0000      0.0000     -0.0024      0.0000      0.0000
 Ground to excited state transition magnetic dipole moments (Au):
       state          X           Y           Z
         1         0.0000      0.0000     -0.9952
         2         0.0000      0.0098      0.0000
         3         0.0000     -0.0093      0.0000
         4         0.0000      0.0000     -1.3870
         5         0.4281      0.0000      0.0000
         6         0.0000      0.0000      0.0000
         7         0.0000      0.0000     -0.5726
         8         0.0000      0.4612      0.0000
         9         0.9223      0.0000      0.0000
        10         0.0000      0.0000      0.0000
 Ground to excited state transition velocity quadrupole moments (Au):
       state          XX          YY          ZZ          XY          XZ          YZ
         1         0.0000      0.0000      0.0000     -0.0067      0.0000      0.0000
         2         0.0000      0.0000      0.0000      0.0000      0.0069      0.0000
         3         0.0000      0.0000      0.0000      0.0000     -0.0075      0.0000
         4         0.0000      0.0000      0.0000     -0.0378      0.0000      0.0000
         5         0.0000      0.0000      0.0000      0.0000      0.0000      0.1093
         6        -0.0109     -0.0887     -0.0353      0.0000      0.0000      0.0000
         7         0.0000      0.0000      0.0000      0.5307      0.0000      0.0000
         8         0.0000      0.0000      0.0000      0.0000      0.4086      0.0000
         9         0.0000      0.0000      0.0000      0.0000      0.0000     -0.1061
        10        -0.0006      0.1892      0.0108      0.0000      0.0000      0.0000
 <0|del|b> * <b|rxdel|0> + <0|del|b> * <b|delr+rdel|0>
 Rotatory Strengths (R) in cgs (10**-40 erg-esu-cm/Gauss)
       state          XX          YY          ZZ    R(velocity)    E-M Angle
         1         0.0000      0.0000      0.0000      0.0000       90.00
         2         0.0000      0.0000      0.0000      0.0000       90.00
         3         0.0000      0.0000      0.0000      0.0000       90.00
         4         0.0000      0.0000      0.0000      0.0000       90.00
         5         0.0000      0.0000      0.0000      0.0000       90.00
         6         0.0000      0.0000      0.0000      0.0000       90.00
         7         0.0000      0.0000      0.0000      0.0000       90.00
         8         0.0000      0.0000      0.0000      0.0000       90.00
         9         0.0000      0.0000      0.0000      0.0000       90.00
        10         0.0000      0.0000      0.0000      0.0000       90.00
 1/2[<0|r|b>*<b|rxdel|0> + (<0|rxdel|b>*<b|r|0>)*]
 Rotatory Strengths (R) in cgs (10**-40 erg-esu-cm/Gauss)
       state          XX          YY          ZZ     R(length)
         1         0.0000      0.0000      0.0000      0.0000
         2         0.0000      0.0000      0.0000      0.0000
         3         0.0000      0.0000      0.0000      0.0000
         4         0.0000      0.0000      0.0000      0.0000
         5         0.0000      0.0000      0.0000      0.0000
         6         0.0000      0.0000      0.0000      0.0000
         7         0.0000      0.0000      0.0000      0.0000
         8         0.0000      0.0000      0.0000      0.0000
         9         0.0000      0.0000      0.0000      0.0000
        10         0.0000      0.0000      0.0000      0.0000
  1/2[<0|del|b>*<b|r|0> + (<0|r|b>*<b|del|0>)*] (Au)
       state          X           Y           Z        Dip. S.   Osc.(frdel)
         1         0.0000      0.0000      0.0000      0.0000      0.0000
         2         0.0000      0.0000      0.0000      0.0000      0.0000
         3        -0.0001      0.0000      0.0000      0.0001      0.0000
         4         0.0000      0.0000      0.0000      0.0000      0.0000
         5         0.0000     -0.0151      0.0000      0.0151      0.0101
         6         0.0000      0.0000     -0.0006      0.0006      0.0004
         7         0.0000      0.0000      0.0000      0.0000      0.0000
         8        -0.0601      0.0000      0.0000      0.0601      0.0401
         9         0.0000     -0.0009      0.0000      0.0009      0.0006
        10         0.0000      0.0000      0.0000      0.0000      0.0000

 Excitation energies and oscillator strengths:
 
 Excited State   1:      Singlet-A2     3.5834 eV  345.99 nm  f=0.0000  <S**2>=0.000
       5 -> 46         0.00188
       5 -> 54         0.00131
       6 -> 45         0.00188
       6 -> 53         0.00131
       7 -> 54        -0.00127
       8 -> 53        -0.00128
      11 -> 54        -0.00115
      12 -> 53        -0.00114
      15 -> 18        -0.14390
      15 -> 20         0.00101
      16 -> 17         0.69247
      16 -> 19         0.00182
       5 <- 46         0.00168
       5 <- 54         0.00119
       6 <- 45         0.00169
       6 <- 53         0.00120
       7 <- 54        -0.00114
       8 <- 53        -0.00115
      11 <- 54        -0.00102
      12 <- 53        -0.00101
      15 <- 18        -0.01001
      16 <- 17        -0.01138
 This state for optimization and/or second-order correction.
 Total Energy, E(TD-HF/TD-KS) =  -228.596670288    
 Copying the excited state density for this state as the 1-particle RhoCI density.
 
 Excited State   2:      Singlet-B1     3.6348 eV  341.11 nm  f=0.0000  <S**2>=0.000
       5 -> 45         0.00179
       5 -> 53         0.00124
       6 -> 46         0.00179
       6 -> 54         0.00124
       7 -> 53        -0.00122
       8 -> 54        -0.00122
      11 -> 53        -0.00109
      12 -> 54        -0.00108
      15 -> 17         0.68555
      16 -> 18        -0.17386
       5 <- 45         0.00160
       5 <- 53         0.00113
       6 <- 46         0.00160
       6 <- 54         0.00113
       7 <- 53        -0.00109
       8 <- 54        -0.00110
      15 <- 17        -0.01072
      16 <- 18        -0.00969
 
 Excited State   3:      Singlet-B1     4.2420 eV  292.28 nm  f=0.0000  <S**2>=0.000
       5 -> 45         0.00296
       5 -> 53         0.00200
       6 -> 46         0.00296
       6 -> 54         0.00201
       7 -> 53        -0.00203
       8 -> 54        -0.00204
      11 -> 53        -0.00178
      12 -> 54        -0.00178
      15 -> 17         0.17433
      15 -> 38        -0.00104
      16 -> 18         0.68562
      16 -> 20        -0.00148
       5 <- 45         0.00260
       5 <- 53         0.00179
       6 <- 46         0.00260
       6 <- 54         0.00180
       7 <- 53        -0.00178
       8 <- 54        -0.00179
      11 <- 53        -0.00155
      12 <- 54        -0.00155
      15 <- 17        -0.01614
      16 <- 18        -0.01469
 
 Excited State   4:      Singlet-A2     4.2843 eV  289.39 nm  f=0.0000  <S**2>=0.000
       5 -> 46         0.00281
       5 -> 54         0.00192
       6 -> 45         0.00282
       6 -> 53         0.00192
       7 -> 54        -0.00191
       8 -> 53        -0.00192
      10 -> 17        -0.00140
      11 -> 54        -0.00170
      12 -> 53        -0.00170
      15 -> 18         0.69251
      16 -> 17         0.14434
      16 -> 19         0.00151
      16 -> 38        -0.00114
       5 <- 46         0.00247
       5 <- 54         0.00172
       6 <- 45         0.00247
       6 <- 53         0.00172
       7 <- 54        -0.00168
       8 <- 53        -0.00169
      11 <- 54        -0.00148
      12 <- 53        -0.00148
      15 <- 18        -0.01360
      16 <- 17        -0.01521
 
 Excited State   5:      Singlet-B2     7.7933 eV  159.09 nm  f=0.0113  <S**2>=0.000
       5 -> 24         0.00358
       5 -> 30        -0.00261
       5 -> 44        -0.00112
       6 -> 22         0.00366
       6 -> 28        -0.00127
       6 -> 31         0.00233
       6 -> 43        -0.00118
       7 -> 20        -0.00262
       7 -> 24        -0.00246
       7 -> 36        -0.00112
       8 -> 19        -0.00286
       8 -> 22        -0.00283
       8 -> 34         0.00129
       9 -> 23        -0.00419
       9 -> 42         0.00164
      10 -> 21        -0.00474
      10 -> 41         0.00168
      11 -> 18        -0.02089
      11 -> 20        -0.00369
      11 -> 24         0.00556
      11 -> 30        -0.00414
      11 -> 32        -0.00235
      11 -> 36        -0.00423
      11 -> 40        -0.00103
      12 -> 17         0.00690
      12 -> 19        -0.00427
      12 -> 22         0.00561
      12 -> 28        -0.00132
      12 -> 31         0.00505
      12 -> 34         0.00402
      12 -> 37        -0.00167
      13 -> 18        -0.40211
      13 -> 26         0.00117
      13 -> 40        -0.00356
      14 -> 17         0.57927
      14 -> 19         0.00133
      14 -> 22        -0.00276
      14 -> 25         0.00121
      14 -> 34         0.00135
      14 -> 38        -0.00457
      15 -> 23        -0.02983
      15 -> 29        -0.00531
      15 -> 35         0.00248
      15 -> 42         0.00285
      15 -> 52         0.00103
      16 -> 21        -0.03916
      16 -> 27        -0.00575
      16 -> 33         0.00235
      16 -> 41         0.00323
      16 -> 51         0.00108
       5 <- 24         0.00220
       5 <- 30        -0.00182
       6 <- 22         0.00220
       6 <- 31         0.00163
       7 <- 20        -0.00105
       7 <- 24        -0.00116
       8 <- 19        -0.00110
       8 <- 22        -0.00126
       9 <- 23        -0.00154
       9 <- 42         0.00111
      10 <- 21        -0.00167
      10 <- 41         0.00113
      11 <- 18        -0.00139
      11 <- 24         0.00200
      11 <- 30        -0.00234
      11 <- 32        -0.00140
      11 <- 36        -0.00259
      12 <- 19        -0.00101
      12 <- 22         0.00182
      12 <- 31         0.00287
      12 <- 34         0.00244
      12 <- 37        -0.00104
      13 <- 18        -0.01376
      13 <- 40        -0.00230
      14 <- 17        -0.01615
      14 <- 38        -0.00284
      15 <- 23        -0.00450
      15 <- 29        -0.00260
      15 <- 35         0.00139
      15 <- 42         0.00178
      16 <- 21        -0.00482
      16 <- 27        -0.00266
      16 <- 33         0.00129
      16 <- 41         0.00200
 
 Excited State   6:      Singlet-A1     7.8513 eV  157.91 nm  f=0.0006  <S**2>=0.000
       7 -> 17         0.00252
       7 -> 22        -0.00105
       8 -> 18         0.00258
      11 -> 17         0.01633
      11 -> 19        -0.00164
      11 -> 22         0.00181
      12 -> 18         0.01303
      12 -> 20        -0.00124
      12 -> 24         0.00183
      13 -> 17         0.52288
      13 -> 22        -0.00112
      13 -> 38        -0.00104
      14 -> 18        -0.47532
      15 -> 21        -0.01183
      15 -> 27        -0.00116
      16 -> 23        -0.00933
      16 -> 29        -0.00103
      13 <- 17        -0.00342
      14 <- 18        -0.00347
      15 <- 21        -0.00144
      16 <- 23        -0.00135
 
 Excited State   7:      Singlet-A2     7.9384 eV  156.18 nm  f=0.0000  <S**2>=0.000
       7 -> 23         0.00381
       7 -> 35        -0.00388
       8 -> 21         0.00340
       8 -> 33        -0.00414
       9 -> 20         0.01488
       9 -> 24         0.00256
       9 -> 26         0.00224
       9 -> 30         0.00111
       9 -> 32        -0.00363
       9 -> 36         0.00123
       9 -> 39        -0.00287
      10 -> 17        -0.00300
      10 -> 19         0.01497
      10 -> 22         0.00215
      10 -> 25        -0.00218
      10 -> 28         0.00332
      10 -> 31         0.00141
      10 -> 34        -0.00196
      10 -> 37        -0.00389
      11 -> 23        -0.00366
      11 -> 35         0.00173
      12 -> 21        -0.00354
      12 -> 33         0.00190
      15 -> 18        -0.00113
      15 -> 20        -0.17350
      15 -> 24         0.00535
      15 -> 26        -0.00287
      15 -> 30        -0.00134
      15 -> 32         0.00424
      15 -> 36        -0.00143
      15 -> 39         0.00237
      16 -> 17        -0.00177
      16 -> 19         0.68500
      16 -> 22         0.00972
      16 -> 25         0.00263
      16 -> 28        -0.00435
      16 -> 31        -0.00163
      16 -> 34         0.00225
      16 -> 37         0.00373
       7 <- 23         0.00168
       7 <- 35        -0.00252
       8 <- 21         0.00145
       8 <- 33        -0.00266
       9 <- 20         0.00445
       9 <- 26         0.00120
       9 <- 32        -0.00220
       9 <- 39        -0.00186
      10 <- 19         0.00418
      10 <- 25        -0.00106
      10 <- 28         0.00183
      10 <- 34        -0.00121
      10 <- 37        -0.00244
      11 <- 23        -0.00116
      11 <- 35         0.00105
      12 <- 21        -0.00107
      12 <- 33         0.00113
      15 <- 20        -0.00516
      15 <- 24         0.00104
      15 <- 26        -0.00124
      15 <- 32         0.00225
      15 <- 39         0.00139
      16 <- 19        -0.00501
      16 <- 22         0.00133
      16 <- 28        -0.00198
      16 <- 34         0.00123
      16 <- 37         0.00211
 
 Excited State   8:      Singlet-B1     8.0098 eV  154.79 nm  f=0.0466  <S**2>=0.000
       7 -> 21         0.00361
       7 -> 33        -0.00334
       8 -> 23         0.00387
       8 -> 35        -0.00321
       9 -> 17         0.00145
       9 -> 19         0.01608
       9 -> 22         0.00300
       9 -> 25        -0.00161
       9 -> 28         0.00292
       9 -> 31         0.00119
       9 -> 34        -0.00154
       9 -> 37        -0.00327
      10 -> 18         0.00153
      10 -> 20         0.01525
      10 -> 24         0.00321
      10 -> 26         0.00226
      10 -> 32        -0.00288
      10 -> 39        -0.00254
      11 -> 21        -0.00471
      11 -> 33         0.00165
      12 -> 23        -0.00463
      12 -> 35         0.00159
      15 -> 19         0.66167
      15 -> 22         0.00912
      15 -> 25         0.00194
      15 -> 28        -0.00378
      15 -> 31        -0.00173
      15 -> 34         0.00175
      15 -> 37         0.00300
      16 -> 20        -0.24802
      16 -> 24         0.00502
      16 -> 26        -0.00281
      16 -> 32         0.00384
      16 -> 36        -0.00115
      16 -> 39         0.00189
       7 <- 21         0.00154
       7 <- 33        -0.00214
       8 <- 23         0.00168
       8 <- 35        -0.00208
       9 <- 19         0.00446
       9 <- 22         0.00106
       9 <- 28         0.00161
       9 <- 37        -0.00205
      10 <- 20         0.00446
      10 <- 24         0.00123
      10 <- 26         0.00120
      10 <- 32        -0.00173
      10 <- 39        -0.00163
      11 <- 21        -0.00141
      12 <- 23        -0.00145
      15 <- 19        -0.00547
      15 <- 22         0.00123
      15 <- 28        -0.00171
      15 <- 37         0.00169
      16 <- 20        -0.00545
      16 <- 26        -0.00120
      16 <- 32         0.00202
      16 <- 39         0.00111
 
 Excited State   9:      Singlet-B2     8.4597 eV  146.56 nm  f=0.0002  <S**2>=0.000
       5 -> 18         0.00664
       6 -> 17         0.00710
       7 -> 18        -0.00687
       7 -> 48        -0.00155
       8 -> 17        -0.00842
       8 -> 47         0.00166
       9 -> 54        -0.00132
      10 -> 53        -0.00133
      11 -> 18        -0.26772
      11 -> 20        -0.00106
      11 -> 48        -0.00292
      11 -> 60        -0.00191
      12 -> 17         0.65197
      12 -> 25         0.00122
      12 -> 47         0.00296
      12 -> 59        -0.00198
      13 -> 18         0.05243
      13 -> 24        -0.00206
      13 -> 30         0.00187
      13 -> 36        -0.00133
      13 -> 39        -0.00111
      13 -> 50         0.00232
      14 -> 17         0.01875
      14 -> 22        -0.00253
      14 -> 31        -0.00175
      14 -> 34         0.00161
      14 -> 37        -0.00145
      14 -> 49         0.00239
      14 -> 55         0.00106
      15 -> 23        -0.00154
      15 -> 46        -0.00241
      15 -> 54        -0.00238
      16 -> 21        -0.00241
      16 -> 45        -0.00242
      16 -> 53        -0.00239
       5 <- 18         0.00327
       6 <- 17         0.00343
       7 <- 18        -0.00168
       7 <- 48        -0.00114
       8 <- 17        -0.00186
       8 <- 47         0.00122
       9 <- 54        -0.00101
      10 <- 53        -0.00102
      11 <- 18        -0.00690
      11 <- 48        -0.00208
      11 <- 60        -0.00154
      12 <- 17        -0.00721
      12 <- 47         0.00211
      12 <- 59        -0.00159
      13 <- 50         0.00169
      14 <- 17        -0.00129
      14 <- 49         0.00174
      15 <- 46        -0.00164
      15 <- 54        -0.00176
      16 <- 45        -0.00165
      16 <- 53        -0.00177
 
 Excited State  10:      Singlet-A1     8.4878 eV  146.07 nm  f=0.0000  <S**2>=0.000
       5 -> 17         0.00665
       6 -> 18         0.00624
       7 -> 17        -0.00726
       7 -> 19         0.00141
       7 -> 47         0.00154
       8 -> 18        -0.00639
       8 -> 20         0.00117
       8 -> 48        -0.00150
       9 -> 21         0.00158
       9 -> 53        -0.00124
      10 -> 23         0.00136
      10 -> 54        -0.00124
      11 -> 17         0.64016
      11 -> 25         0.00110
      11 -> 47         0.00279
      11 -> 59        -0.00183
      12 -> 18        -0.29574
      12 -> 20        -0.00116
      12 -> 48        -0.00272
      12 -> 60        -0.00179
      13 -> 17        -0.04064
      13 -> 31        -0.00183
      13 -> 37        -0.00118
      13 -> 49         0.00219
      14 -> 18        -0.03092
      14 -> 24        -0.00159
      14 -> 30         0.00196
      14 -> 36        -0.00132
      14 -> 39        -0.00111
      14 -> 50         0.00232
      15 -> 45        -0.00225
      15 -> 53        -0.00223
      16 -> 46        -0.00227
      16 -> 54        -0.00223
       5 <- 17         0.00321
       6 <- 18         0.00307
       7 <- 17        -0.00162
       7 <- 47         0.00113
       8 <- 18        -0.00153
       8 <- 48        -0.00110
      11 <- 17        -0.00674
      11 <- 47         0.00198
      11 <- 59        -0.00147
      12 <- 18        -0.00653
      12 <- 48        -0.00193
      12 <- 60        -0.00144
      13 <- 17         0.00185
      13 <- 49         0.00160
      14 <- 30         0.00102
      14 <- 50         0.00168
      15 <- 45        -0.00153
      15 <- 53        -0.00165
      16 <- 46        -0.00154
      16 <- 54        -0.00165
 SavETr:  write IOETrn=   770 NScale= 10 NData=  16 NLR=1 NState=   10 LETran=     190.
 Leave Link  914 at Wed Nov 12 12:06:04 2014, MaxMem=    33554432 cpu:         8.5
 (Enter /opt/software/Gaussian/AMD/g09/l601.exe)
 Copying SCF densities to generalized density rwf, IOpCl= 0 IROHF=0.

 **********************************************************************

            Population analysis using the SCF density.

 **********************************************************************

 Orbital symmetries:
       Occupied  (B2) (A1) (B2) (A1) (A1) (B2) (A1) (B2) (B1) (A2)
                 (A1) (B2) (A1) (B2) (B1) (A2)
       Virtual   (A1) (B2) (A1) (B2) (B1) (A1) (A2) (B2) (A1) (B2)
                 (B1) (A1) (A2) (B2) (A1) (B2) (B1) (A1) (A2) (B2)
                 (A1) (A1) (B2) (B2) (B1) (A2) (A1) (B2) (B1) (A2)
                 (A1) (B2) (A1) (B2) (B1) (A2) (B1) (A2) (A1) (B2)
                 (A1) (B2) (A1) (B2) (B1) (A2) (A1) (B2) (A1) (B2)
                 (A1) (B2)
 The electronic state is 1-A1.
 Alpha  occ. eigenvalues --  -18.78963 -18.78963  -9.98762  -9.98761  -0.98006
 Alpha  occ. eigenvalues --   -0.97913  -0.57696  -0.57354  -0.44665  -0.44424
 Alpha  occ. eigenvalues --   -0.39184  -0.39051  -0.37120  -0.35728  -0.21588
 Alpha  occ. eigenvalues --   -0.21385
 Alpha virt. eigenvalues --   -0.08642  -0.06450   0.07365   0.09374   0.15293
 Alpha virt. eigenvalues --    0.17054   0.17223   0.21644   0.39801   0.51899
 Alpha virt. eigenvalues --    0.56508   0.56508   0.62129   0.63905   0.64759
 Alpha virt. eigenvalues --    0.73658   0.76764   0.78421   0.79474   0.80102
 Alpha virt. eigenvalues --    0.83557   0.87317   0.90844   0.95408   1.00508
 Alpha virt. eigenvalues --    1.02314   1.32216   1.38135   1.42875   1.42878
 Alpha virt. eigenvalues --    1.44708   1.45567   1.61153   1.61457   1.79188
 Alpha virt. eigenvalues --    1.82048   1.86183   1.86186   2.06526   2.08884
 Alpha virt. eigenvalues --    2.22383   2.24533   2.46345   2.49999   2.59514
 Alpha virt. eigenvalues --    2.59882   2.84796   2.86414   3.58926   3.65285
 Alpha virt. eigenvalues --    3.96183   4.03576
     Molecular Orbital Coefficients:
                           1         2         3         4         5
                        (B2)--O   (A1)--O   (B2)--O   (A1)--O   (A1)--O
     Eigenvalues --   -18.78963 -18.78963  -9.98762  -9.98761  -0.98006
   1 1   C  1S          0.00004   0.00003   0.70163   0.70158  -0.08517
   2        2S          0.00039   0.00036   0.03755   0.03743   0.16250
   3        2PX         0.00000   0.00000   0.00000   0.00000   0.00000
   4        2PY        -0.00001   0.00000  -0.00014   0.00006  -0.00026
   5        2PZ         0.00013   0.00013  -0.00081  -0.00091  -0.13766
   6        3S         -0.00215  -0.00200  -0.00698  -0.00529   0.06802
   7        3PX         0.00000   0.00000   0.00000   0.00000   0.00000
   8        3PY         0.00005  -0.00002   0.00036  -0.00016  -0.00048
   9        3PZ         0.00152   0.00152  -0.00115  -0.00150   0.00958
  10        4XX         0.00001   0.00000  -0.00757  -0.00770  -0.01130
  11        4YY         0.00002   0.00001  -0.00768  -0.00787  -0.01324
  12        4ZZ        -0.00068  -0.00071  -0.00675  -0.00683   0.01825
  13        4XY         0.00000   0.00000   0.00000   0.00000   0.00000
  14        4XZ         0.00000   0.00000   0.00000   0.00000   0.00000
  15        4YZ        -0.00001   0.00001  -0.00003   0.00001  -0.00003
  16 2   C  1S         -0.00004   0.00003  -0.70163   0.70158  -0.08517
  17        2S         -0.00039   0.00036  -0.03755   0.03743   0.16250
  18        2PX         0.00000   0.00000   0.00000   0.00000   0.00000
  19        2PY        -0.00001   0.00000  -0.00014  -0.00006   0.00026
  20        2PZ        -0.00013   0.00013   0.00081  -0.00091  -0.13766
  21        3S          0.00215  -0.00200   0.00698  -0.00529   0.06802
  22        3PX         0.00000   0.00000   0.00000   0.00000   0.00000
  23        3PY         0.00005   0.00002   0.00036   0.00016   0.00048
  24        3PZ        -0.00152   0.00152   0.00115  -0.00150   0.00958
  25        4XX        -0.00001   0.00000   0.00757  -0.00770  -0.01130
  26        4YY        -0.00002   0.00001   0.00768  -0.00787  -0.01324
  27        4ZZ         0.00068  -0.00071   0.00675  -0.00683   0.01825
  28        4XY         0.00000   0.00000   0.00000   0.00000   0.00000
  29        4XZ         0.00000   0.00000   0.00000   0.00000   0.00000
  30        4YZ        -0.00001  -0.00001  -0.00003  -0.00001   0.00003
  31 3   O  1S          0.70181   0.70182  -0.00017  -0.00012  -0.13765
  32        2S          0.01907   0.01909  -0.00008   0.00015   0.30375
  33        2PX         0.00000   0.00000   0.00000   0.00000   0.00000
  34        2PY         0.00001  -0.00001   0.00000   0.00000   0.00001
  35        2PZ         0.00090   0.00090  -0.00016  -0.00013   0.12383
  36        3S          0.00941   0.00928  -0.00045  -0.00180   0.25232
  37        3PX         0.00000   0.00000   0.00000   0.00000   0.00000
  38        3PY        -0.00003   0.00002  -0.00010   0.00005  -0.00040
  39        3PZ         0.00095   0.00095  -0.00111  -0.00157   0.03269
  40        4XX        -0.00606  -0.00603   0.00001   0.00015  -0.00634
  41        4YY        -0.00603  -0.00600   0.00008   0.00023  -0.00117
  42        4ZZ        -0.00564  -0.00560  -0.00044  -0.00035   0.00806
  43        4XY         0.00000   0.00000   0.00000   0.00000   0.00000
  44        4XZ         0.00000   0.00000   0.00000   0.00000   0.00000
  45        4YZ        -0.00001   0.00001  -0.00003   0.00001  -0.00005
  46 4   O  1S         -0.70181   0.70182   0.00017  -0.00012  -0.13765
  47        2S         -0.01907   0.01909   0.00008   0.00015   0.30375
  48        2PX         0.00000   0.00000   0.00000   0.00000   0.00000
  49        2PY         0.00001   0.00001   0.00000   0.00000  -0.00001
  50        2PZ        -0.00090   0.00090   0.00016  -0.00013   0.12383
  51        3S         -0.00941   0.00928   0.00045  -0.00180   0.25232
  52        3PX         0.00000   0.00000   0.00000   0.00000   0.00000
  53        3PY        -0.00003  -0.00002  -0.00010  -0.00005   0.00040
  54        3PZ        -0.00095   0.00095   0.00111  -0.00157   0.03269
  55        4XX         0.00606  -0.00603  -0.00001   0.00015  -0.00634
  56        4YY         0.00603  -0.00600  -0.00008   0.00023  -0.00117
  57        4ZZ         0.00564  -0.00560   0.00044  -0.00035   0.00806
  58        4XY         0.00000   0.00000   0.00000   0.00000   0.00000
  59        4XZ         0.00000   0.00000   0.00000   0.00000   0.00000
  60        4YZ        -0.00001  -0.00001  -0.00003  -0.00001   0.00005
  61 5   H  1S          0.00005   0.00004  -0.00031  -0.00039   0.01999
  62        2S         -0.00012  -0.00014   0.00183   0.00159  -0.00636
  63 6   H  1S         -0.00005   0.00004   0.00031  -0.00039   0.01999
  64        2S          0.00012  -0.00014  -0.00183   0.00159  -0.00636
  65 7   H  1S          0.00005   0.00004  -0.00031  -0.00039   0.01999
  66        2S         -0.00012  -0.00014   0.00183   0.00159  -0.00636
  67 8   H  1S         -0.00005   0.00004   0.00031  -0.00039   0.01999
  68        2S          0.00012  -0.00014  -0.00183   0.00159  -0.00636
                           6         7         8         9        10
                        (B2)--O   (A1)--O   (B2)--O   (B1)--O   (A2)--O
     Eigenvalues --    -0.97913  -0.57696  -0.57354  -0.44665  -0.44424
   1 1   C  1S         -0.08512  -0.11430  -0.11548   0.00000   0.00000
   2        2S          0.16297   0.23347   0.23715   0.00000   0.00000
   3        2PX         0.00000   0.00000   0.00000   0.31881   0.32158
   4        2PY         0.00009  -0.00330   0.00189   0.00000   0.00000
   5        2PZ        -0.13821   0.16707   0.16715   0.00000   0.00000
   6        3S          0.06647   0.22938   0.23533   0.00000   0.00000
   7        3PX         0.00000   0.00000   0.00000   0.11610   0.11566
   8        3PY         0.00010  -0.00372   0.00090   0.00000   0.00000
   9        3PZ         0.01121   0.06601   0.06417   0.00000   0.00000
  10        4XX        -0.01112   0.01293   0.01303   0.00000   0.00000
  11        4YY        -0.01328  -0.00481  -0.00590   0.00000   0.00000
  12        4ZZ         0.01822  -0.00900  -0.00846   0.00000   0.00000
  13        4XY         0.00000   0.00000   0.00000  -0.00034   0.00011
  14        4XZ         0.00000   0.00000   0.00000   0.00349   0.00338
  15        4YZ         0.00005  -0.00005  -0.00008   0.00000   0.00000
  16 2   C  1S          0.08512  -0.11430   0.11548   0.00000   0.00000
  17        2S         -0.16297   0.23347  -0.23715   0.00000   0.00000
  18        2PX         0.00000   0.00000   0.00000   0.31881  -0.32158
  19        2PY         0.00009   0.00330   0.00189   0.00000   0.00000
  20        2PZ         0.13821   0.16707  -0.16715   0.00000   0.00000
  21        3S         -0.06647   0.22938  -0.23533   0.00000   0.00000
  22        3PX         0.00000   0.00000   0.00000   0.11610  -0.11566
  23        3PY         0.00010   0.00372   0.00090   0.00000   0.00000
  24        3PZ        -0.01121   0.06601  -0.06417   0.00000   0.00000
  25        4XX         0.01112   0.01293  -0.01303   0.00000   0.00000
  26        4YY         0.01328  -0.00481   0.00590   0.00000   0.00000
  27        4ZZ        -0.01822  -0.00900   0.00846   0.00000   0.00000
  28        4XY         0.00000   0.00000   0.00000   0.00034   0.00011
  29        4XZ         0.00000   0.00000   0.00000   0.00349  -0.00338
  30        4YZ         0.00005   0.00005  -0.00008   0.00000   0.00000
  31 3   O  1S         -0.13783   0.06114   0.06120   0.00000   0.00000
  32        2S          0.30464  -0.14117  -0.14061   0.00000   0.00000
  33        2PX         0.00000   0.00000   0.00000   0.19166   0.19377
  34        2PY         0.00025  -0.00196   0.00074   0.00000   0.00000
  35        2PZ         0.12418   0.05757   0.05980   0.00000   0.00000
  36        3S          0.25315  -0.16737  -0.17178   0.00000   0.00000
  37        3PX         0.00000   0.00000   0.00000   0.09794   0.09879
  38        3PY         0.00102  -0.00001  -0.00013   0.00000   0.00000
  39        3PZ         0.03335   0.03433   0.03335   0.00000   0.00000
  40        4XX        -0.00597   0.00075   0.00099   0.00000   0.00000
  41        4YY        -0.00108  -0.00191  -0.00182   0.00000   0.00000
  42        4ZZ         0.00845   0.00837   0.00839   0.00000   0.00000
  43        4XY         0.00000   0.00000   0.00000  -0.00005   0.00016
  44        4XZ         0.00000   0.00000   0.00000   0.01637   0.01654
  45        4YZ         0.00005  -0.00007   0.00014   0.00000   0.00000
  46 4   O  1S          0.13783   0.06114  -0.06120   0.00000   0.00000
  47        2S         -0.30464  -0.14117   0.14061   0.00000   0.00000
  48        2PX         0.00000   0.00000   0.00000   0.19166  -0.19377
  49        2PY         0.00025   0.00196   0.00074   0.00000   0.00000
  50        2PZ        -0.12418   0.05757  -0.05980   0.00000   0.00000
  51        3S         -0.25315  -0.16737   0.17178   0.00000   0.00000
  52        3PX         0.00000   0.00000   0.00000   0.09794  -0.09879
  53        3PY         0.00102   0.00001  -0.00013   0.00000   0.00000
  54        3PZ        -0.03335   0.03433  -0.03335   0.00000   0.00000
  55        4XX         0.00597   0.00075  -0.00099   0.00000   0.00000
  56        4YY         0.00108  -0.00191   0.00182   0.00000   0.00000
  57        4ZZ        -0.00845   0.00837  -0.00839   0.00000   0.00000
  58        4XY         0.00000   0.00000   0.00000   0.00005   0.00016
  59        4XZ         0.00000   0.00000   0.00000   0.01637  -0.01654
  60        4YZ         0.00005   0.00007   0.00014   0.00000   0.00000
  61 5   H  1S          0.01998   0.12748   0.12919  -0.13857  -0.13985
  62        2S         -0.00676   0.04787   0.04565  -0.09502  -0.09278
  63 6   H  1S         -0.01998   0.12748  -0.12919  -0.13857   0.13985
  64        2S          0.00676   0.04787  -0.04565  -0.09502   0.09278
  65 7   H  1S          0.01998   0.12748   0.12919   0.13857   0.13985
  66        2S         -0.00676   0.04787   0.04565   0.09502   0.09278
  67 8   H  1S         -0.01998   0.12748  -0.12919   0.13857  -0.13985
  68        2S          0.00676   0.04787  -0.04565   0.09502  -0.09278
                          11        12        13        14        15
                        (A1)--O   (B2)--O   (A1)--O   (B2)--O   (B1)--O
     Eigenvalues --    -0.39184  -0.39051  -0.37120  -0.35728  -0.21588
   1 1   C  1S         -0.02433  -0.02351  -0.00040   0.00013   0.00000
   2        2S          0.07007   0.06619   0.00470  -0.00410   0.00000
   3        2PX         0.00000   0.00000   0.00000   0.00000  -0.09268
   4        2PY         0.01605  -0.01158   0.25887   0.26620   0.00000
   5        2PZ        -0.24776  -0.25037   0.02002  -0.01520   0.00000
   6        3S          0.02452   0.03353  -0.01377   0.01695   0.00000
   7        3PX         0.00000   0.00000   0.00000   0.00000   0.04443
   8        3PY         0.01238  -0.00896   0.15187   0.13864   0.00000
   9        3PZ        -0.05262  -0.06225   0.01385  -0.01672   0.00000
  10        4XX        -0.01115  -0.01201   0.00211  -0.00192   0.00000
  11        4YY        -0.00448  -0.00493  -0.00021  -0.00030   0.00000
  12        4ZZ         0.00091   0.00135   0.00027   0.00004   0.00000
  13        4XY         0.00000   0.00000   0.00000   0.00000   0.00026
  14        4XZ         0.00000   0.00000   0.00000   0.00000  -0.03744
  15        4YZ        -0.00083   0.00074  -0.01805  -0.01951   0.00000
  16 2   C  1S         -0.02433   0.02351  -0.00040  -0.00013   0.00000
  17        2S          0.07007  -0.06619   0.00470   0.00410   0.00000
  18        2PX         0.00000   0.00000   0.00000   0.00000  -0.09268
  19        2PY        -0.01605  -0.01158  -0.25887   0.26620   0.00000
  20        2PZ        -0.24776   0.25037   0.02002   0.01520   0.00000
  21        3S          0.02452  -0.03353  -0.01377  -0.01695   0.00000
  22        3PX         0.00000   0.00000   0.00000   0.00000   0.04443
  23        3PY        -0.01238  -0.00896  -0.15187   0.13864   0.00000
  24        3PZ        -0.05262   0.06225   0.01385   0.01672   0.00000
  25        4XX        -0.01115   0.01201   0.00211   0.00192   0.00000
  26        4YY        -0.00448   0.00493  -0.00021   0.00030   0.00000
  27        4ZZ         0.00091  -0.00135   0.00027  -0.00004   0.00000
  28        4XY         0.00000   0.00000   0.00000   0.00000  -0.00026
  29        4XZ         0.00000   0.00000   0.00000   0.00000  -0.03744
  30        4YZ         0.00083   0.00074   0.01805  -0.01951   0.00000
  31 3   O  1S          0.06447   0.06478  -0.00479   0.00429   0.00000
  32        2S         -0.12804  -0.12868   0.01012  -0.00901   0.00000
  33        2PX         0.00000   0.00000   0.00000   0.00000   0.41571
  34        2PY         0.02124  -0.01719   0.35124   0.36977   0.00000
  35        2PZ         0.37133   0.37190  -0.02322   0.01801   0.00000
  36        3S         -0.29986  -0.30910   0.02947  -0.02987   0.00000
  37        3PX         0.00000   0.00000   0.00000   0.00000   0.29276
  38        3PY         0.01389  -0.01220   0.20899   0.21470   0.00000
  39        3PZ         0.18275   0.17714  -0.00673   0.00196   0.00000
  40        4XX         0.00303   0.00254   0.00049  -0.00050   0.00000
  41        4YY         0.00011   0.00005  -0.00039   0.00077   0.00000
  42        4ZZ         0.02740   0.02623  -0.00071   0.00003   0.00000
  43        4XY         0.00000   0.00000   0.00000   0.00000   0.00007
  44        4XZ         0.00000   0.00000   0.00000   0.00000   0.01307
  45        4YZ         0.00153  -0.00096   0.02253   0.02344   0.00000
  46 4   O  1S          0.06447  -0.06478  -0.00479  -0.00429   0.00000
  47        2S         -0.12804   0.12868   0.01012   0.00901   0.00000
  48        2PX         0.00000   0.00000   0.00000   0.00000   0.41571
  49        2PY        -0.02124  -0.01719  -0.35124   0.36977   0.00000
  50        2PZ         0.37133  -0.37190  -0.02322  -0.01801   0.00000
  51        3S         -0.29986   0.30910   0.02947   0.02987   0.00000
  52        3PX         0.00000   0.00000   0.00000   0.00000   0.29276
  53        3PY        -0.01389  -0.01220  -0.20899   0.21470   0.00000
  54        3PZ         0.18275  -0.17714  -0.00673  -0.00196   0.00000
  55        4XX         0.00303  -0.00254   0.00049   0.00050   0.00000
  56        4YY         0.00011  -0.00005  -0.00039  -0.00077   0.00000
  57        4ZZ         0.02740  -0.02623  -0.00071  -0.00003   0.00000
  58        4XY         0.00000   0.00000   0.00000   0.00000  -0.00007
  59        4XZ         0.00000   0.00000   0.00000   0.00000   0.01307
  60        4YZ        -0.00153  -0.00096  -0.02253   0.02344   0.00000
  61 5   H  1S         -0.05166  -0.05355   0.00773  -0.00587   0.12872
  62        2S         -0.05707  -0.05560   0.00412  -0.00213   0.22072
  63 6   H  1S         -0.05166   0.05355   0.00773   0.00587   0.12872
  64        2S         -0.05707   0.05560   0.00412   0.00213   0.22072
  65 7   H  1S         -0.05166  -0.05355   0.00773  -0.00587  -0.12872
  66        2S         -0.05707  -0.05560   0.00412  -0.00213  -0.22072
  67 8   H  1S         -0.05166   0.05355   0.00773   0.00587  -0.12872
  68        2S         -0.05707   0.05560   0.00412   0.00213  -0.22072
                          16        17        18        19        20
                        (A2)--O   (A1)--V   (B2)--V   (A1)--V   (B2)--V
     Eigenvalues --    -0.21385  -0.08642  -0.06450   0.07365   0.09374
   1 1   C  1S          0.00000  -0.00340   0.00339  -0.09140  -0.09368
   2        2S          0.00000   0.01760  -0.01662   0.16144   0.16461
   3        2PX        -0.09680   0.00000   0.00000   0.00000   0.00000
   4        2PY         0.00000   0.33918   0.38762  -0.02413   0.02470
   5        2PZ         0.00000   0.01064  -0.00952   0.18061   0.18050
   6        3S          0.00000   0.00823  -0.01373   1.30878   1.35502
   7        3PX         0.03293   0.00000   0.00000   0.00000   0.00000
   8        3PY         0.00000   0.39230   0.39687   0.00718  -0.00974
   9        3PZ         0.00000  -0.00201  -0.00182   0.44247   0.44232
  10        4XX         0.00000   0.00205  -0.00176  -0.00937  -0.01196
  11        4YY         0.00000  -0.00299   0.00266   0.00276   0.00355
  12        4ZZ         0.00000   0.00266  -0.00249  -0.00449  -0.00462
  13        4XY        -0.00014   0.00000   0.00000   0.00000   0.00000
  14        4XZ        -0.03785   0.00000   0.00000   0.00000   0.00000
  15        4YZ         0.00000   0.02341   0.02410  -0.00087   0.00081
  16 2   C  1S          0.00000  -0.00340  -0.00339  -0.09140   0.09368
  17        2S          0.00000   0.01760   0.01662   0.16144  -0.16461
  18        2PX         0.09680   0.00000   0.00000   0.00000   0.00000
  19        2PY         0.00000  -0.33918   0.38762   0.02413   0.02470
  20        2PZ         0.00000   0.01064   0.00952   0.18061  -0.18050
  21        3S          0.00000   0.00823   0.01373   1.30878  -1.35502
  22        3PX        -0.03293   0.00000   0.00000   0.00000   0.00000
  23        3PY         0.00000  -0.39230   0.39687  -0.00718  -0.00974
  24        3PZ         0.00000  -0.00201   0.00182   0.44247  -0.44232
  25        4XX         0.00000   0.00205   0.00176  -0.00937   0.01196
  26        4YY         0.00000  -0.00299  -0.00266   0.00276  -0.00355
  27        4ZZ         0.00000   0.00266   0.00249  -0.00449   0.00462
  28        4XY        -0.00014   0.00000   0.00000   0.00000   0.00000
  29        4XZ         0.03785   0.00000   0.00000   0.00000   0.00000
  30        4YZ         0.00000  -0.02341   0.02410   0.00087   0.00081
  31 3   O  1S          0.00000  -0.00047   0.00037   0.00286   0.00413
  32        2S          0.00000   0.00108  -0.00065  -0.01066  -0.00968
  33        2PX         0.41704   0.00000   0.00000   0.00000   0.00000
  34        2PY         0.00000  -0.32799  -0.32182   0.00776  -0.00850
  35        2PZ         0.00000   0.00046  -0.00151  -0.05682  -0.05695
  36        3S          0.00000  -0.00036  -0.00067   0.01326  -0.00910
  37        3PX         0.29476   0.00000   0.00000   0.00000   0.00000
  38        3PY         0.00000  -0.32750  -0.31547   0.00226  -0.00112
  39        3PZ         0.00000  -0.00227   0.00232  -0.05387  -0.06383
  40        4XX         0.00000  -0.00009   0.00025  -0.00605  -0.00482
  41        4YY         0.00000  -0.00108   0.00095   0.00331   0.00533
  42        4ZZ         0.00000  -0.00092   0.00100   0.00129   0.00236
  43        4XY         0.00017   0.00000   0.00000   0.00000   0.00000
  44        4XZ         0.01309   0.00000   0.00000   0.00000   0.00000
  45        4YZ         0.00000  -0.00179   0.00147  -0.00140   0.00150
  46 4   O  1S          0.00000  -0.00047  -0.00037   0.00286  -0.00413
  47        2S          0.00000   0.00108   0.00065  -0.01066   0.00968
  48        2PX        -0.41704   0.00000   0.00000   0.00000   0.00000
  49        2PY         0.00000   0.32799  -0.32182  -0.00776  -0.00850
  50        2PZ         0.00000   0.00046   0.00151  -0.05682   0.05695
  51        3S          0.00000  -0.00036   0.00067   0.01326   0.00910
  52        3PX        -0.29476   0.00000   0.00000   0.00000   0.00000
  53        3PY         0.00000   0.32750  -0.31547  -0.00226  -0.00112
  54        3PZ         0.00000  -0.00227  -0.00232  -0.05387   0.06383
  55        4XX         0.00000  -0.00009  -0.00025  -0.00605   0.00482
  56        4YY         0.00000  -0.00108  -0.00095   0.00331  -0.00533
  57        4ZZ         0.00000  -0.00092  -0.00100   0.00129  -0.00236
  58        4XY         0.00017   0.00000   0.00000   0.00000   0.00000
  59        4XZ        -0.01309   0.00000   0.00000   0.00000   0.00000
  60        4YZ         0.00000   0.00179   0.00147   0.00140   0.00150
  61 5   H  1S          0.13105   0.00961  -0.00828  -0.06325  -0.08126
  62        2S          0.21007  -0.01246   0.01669  -0.96149  -0.97618
  63 6   H  1S         -0.13105   0.00961   0.00828  -0.06325   0.08126
  64        2S         -0.21007  -0.01246  -0.01669  -0.96149   0.97618
  65 7   H  1S         -0.13105   0.00961  -0.00828  -0.06325  -0.08126
  66        2S         -0.21007  -0.01246   0.01669  -0.96149  -0.97618
  67 8   H  1S          0.13105   0.00961   0.00828  -0.06325   0.08126
  68        2S          0.21007  -0.01246  -0.01669  -0.96149   0.97618
                          21        22        23        24        25
                        (B1)--V   (A1)--V   (A2)--V   (B2)--V   (A1)--V
     Eigenvalues --     0.15293   0.17054   0.17223   0.21644   0.39801
   1 1   C  1S          0.00000   0.03151   0.00000   0.03502   0.00702
   2        2S          0.00000   0.02120   0.00000  -0.04515   0.19062
   3        2PX         0.39103   0.00000   0.39747   0.00000   0.00000
   4        2PY         0.00000  -0.05966   0.00000   0.06416  -0.66801
   5        2PZ         0.00000   0.08286   0.00000   0.09591   0.04457
   6        3S          0.00000  -1.17661   0.00000  -1.12312  -0.37019
   7        3PX         0.93690   0.00000   0.96767   0.00000   0.00000
   8        3PY         0.00000   0.02216   0.00000  -0.03776   0.67642
   9        3PZ         0.00000   1.33198   0.00000   1.44287  -0.34360
  10        4XX         0.00000  -0.01070   0.00000  -0.02964   0.05155
  11        4YY         0.00000  -0.01073   0.00000  -0.01241  -0.00770
  12        4ZZ         0.00000   0.01701   0.00000   0.02122   0.01517
  13        4XY         0.00033   0.00000  -0.00045   0.00000   0.00000
  14        4XZ         0.00272   0.00000  -0.00004   0.00000   0.00000
  15        4YZ         0.00000   0.00061   0.00000  -0.00081   0.00834
  16 2   C  1S          0.00000   0.03151   0.00000  -0.03502   0.00702
  17        2S          0.00000   0.02120   0.00000   0.04515   0.19062
  18        2PX         0.39103   0.00000  -0.39747   0.00000   0.00000
  19        2PY         0.00000   0.05966   0.00000   0.06416   0.66801
  20        2PZ         0.00000   0.08286   0.00000  -0.09591   0.04457
  21        3S          0.00000  -1.17661   0.00000   1.12312  -0.37019
  22        3PX         0.93690   0.00000  -0.96767   0.00000   0.00000
  23        3PY         0.00000  -0.02216   0.00000  -0.03776  -0.67642
  24        3PZ         0.00000   1.33198   0.00000  -1.44287  -0.34360
  25        4XX         0.00000  -0.01070   0.00000   0.02964   0.05155
  26        4YY         0.00000  -0.01073   0.00000   0.01241  -0.00770
  27        4ZZ         0.00000   0.01701   0.00000  -0.02122   0.01517
  28        4XY        -0.00033   0.00000  -0.00045   0.00000   0.00000
  29        4XZ         0.00272   0.00000   0.00004   0.00000   0.00000
  30        4YZ         0.00000  -0.00061   0.00000  -0.00081  -0.00834
  31 3   O  1S          0.00000  -0.07845   0.00000  -0.08160   0.00605
  32        2S          0.00000   0.07307   0.00000   0.06471   0.01699
  33        2PX        -0.13450   0.00000  -0.13338   0.00000   0.00000
  34        2PY         0.00000  -0.02272   0.00000   0.02499  -0.02259
  35        2PZ         0.00000   0.12581   0.00000   0.14976  -0.01850
  36        3S          0.00000   1.51004   0.00000   1.60570  -0.18184
  37        3PX        -0.27137   0.00000  -0.27714   0.00000   0.00000
  38        3PY         0.00000   0.01184   0.00000  -0.01006  -0.05695
  39        3PZ         0.00000   0.59622   0.00000   0.63063  -0.03918
  40        4XX         0.00000  -0.04943   0.00000  -0.06073   0.01764
  41        4YY         0.00000  -0.05342   0.00000  -0.05164   0.00202
  42        4ZZ         0.00000  -0.00119   0.00000  -0.01317   0.00926
  43        4XY        -0.00026   0.00000   0.00018   0.00000   0.00000
  44        4XZ         0.00756   0.00000   0.00870   0.00000   0.00000
  45        4YZ         0.00000  -0.00311   0.00000   0.00365  -0.04675
  46 4   O  1S          0.00000  -0.07845   0.00000   0.08160   0.00605
  47        2S          0.00000   0.07307   0.00000  -0.06471   0.01699
  48        2PX        -0.13450   0.00000   0.13338   0.00000   0.00000
  49        2PY         0.00000   0.02272   0.00000   0.02499   0.02259
  50        2PZ         0.00000   0.12581   0.00000  -0.14976  -0.01850
  51        3S          0.00000   1.51004   0.00000  -1.60570  -0.18184
  52        3PX        -0.27137   0.00000   0.27714   0.00000   0.00000
  53        3PY         0.00000  -0.01184   0.00000  -0.01006   0.05695
  54        3PZ         0.00000   0.59622   0.00000  -0.63063  -0.03918
  55        4XX         0.00000  -0.04943   0.00000   0.06073   0.01764
  56        4YY         0.00000  -0.05342   0.00000   0.05164   0.00202
  57        4ZZ         0.00000  -0.00119   0.00000   0.01317   0.00926
  58        4XY         0.00026   0.00000   0.00018   0.00000   0.00000
  59        4XZ         0.00756   0.00000  -0.00870   0.00000   0.00000
  60        4YZ         0.00000   0.00311   0.00000   0.00365   0.04675
  61 5   H  1S          0.00498   0.02179   0.02640  -0.00079   0.12543
  62        2S          1.11226  -0.11164   1.13336  -0.14920   0.13001
  63 6   H  1S          0.00498   0.02179  -0.02640   0.00079   0.12543
  64        2S          1.11226  -0.11164  -1.13336   0.14920   0.13001
  65 7   H  1S         -0.00498   0.02179  -0.02640  -0.00079   0.12543
  66        2S         -1.11226  -0.11164  -1.13336  -0.14920   0.13001
  67 8   H  1S         -0.00498   0.02179   0.02640   0.00079   0.12543
[...]
  60        4YZ         0.00000   0.00000   0.00000   0.00000   0.00000
  61 5   H  1S          0.00000  -0.00007  -0.00033   0.00000  -0.00022
  62        2S          0.00000  -0.00045  -0.00879   0.00000  -0.00447
  63 6   H  1S          0.00000   0.00000   0.00000   0.00000   0.00000
  64        2S          0.00000   0.00000   0.00000   0.00000   0.00000
  65 7   H  1S          0.00000  -0.00007  -0.00033   0.00000  -0.00022
  66        2S          0.00000  -0.00045  -0.00879   0.00000  -0.00447
  67 8   H  1S          0.00000   0.00000   0.00000   0.00000   0.00000
  68        2S          0.00000   0.00000   0.00000   0.00000   0.00000
                          36        37        38        39        40
  36        3S          0.74534
  37        3PX         0.00000   0.38388
  38        3PY         0.00000   0.00000   0.18023
  39        3PZ         0.00000   0.00000   0.00000   0.13861
  40        4XX        -0.00724   0.00000   0.00000   0.00000   0.00033
  41        4YY        -0.00019   0.00000   0.00000   0.00000   0.00006
  42        4ZZ        -0.02113   0.00000   0.00000   0.00000   0.00009
  43        4XY         0.00000   0.00000   0.00000   0.00000   0.00000
  44        4XZ         0.00000   0.00000   0.00000   0.00000   0.00000
  45        4YZ         0.00000   0.00000   0.00000   0.00000   0.00000
  46 4   O  1S          0.00000   0.00000   0.00000   0.00000   0.00000
  47        2S          0.00000   0.00000   0.00000   0.00000   0.00000
  48        2PX         0.00000   0.00000   0.00000   0.00000   0.00000
  49        2PY         0.00000   0.00000  -0.00001   0.00000   0.00000
  50        2PZ         0.00000   0.00000   0.00000   0.00000   0.00000
  51        3S         -0.00004   0.00000  -0.00008   0.00000   0.00000
  52        3PX         0.00000  -0.00001   0.00000   0.00000   0.00000
  53        3PY        -0.00008   0.00000  -0.00014   0.00000   0.00000
  54        3PZ         0.00000   0.00000   0.00000   0.00001   0.00000
  55        4XX         0.00000   0.00000   0.00000   0.00000   0.00000
  56        4YY         0.00000   0.00000   0.00000   0.00000   0.00000
  57        4ZZ         0.00000   0.00000   0.00000   0.00000   0.00000
  58        4XY         0.00000   0.00000   0.00000   0.00000   0.00000
  59        4XZ         0.00000   0.00000   0.00000   0.00000   0.00000
  60        4YZ         0.00000   0.00000   0.00000   0.00000   0.00000
  61 5   H  1S         -0.00010  -0.00650   0.00000  -0.00228  -0.00001
  62        2S          0.00695  -0.03334   0.00000  -0.01036  -0.00003
  63 6   H  1S          0.00000   0.00000   0.00000   0.00000   0.00000
  64        2S          0.00000  -0.00001   0.00000   0.00000   0.00000
  65 7   H  1S         -0.00010  -0.00650   0.00000  -0.00228  -0.00001
  66        2S          0.00695  -0.03334   0.00000  -0.01036  -0.00003
  67 8   H  1S          0.00000   0.00000   0.00000   0.00000   0.00000
  68        2S          0.00000  -0.00001   0.00000   0.00000   0.00000
                          41        42        43        44        45
  41        4YY         0.00017
  42        4ZZ         0.00001   0.00356
  43        4XY         0.00000   0.00000   0.00000
  44        4XZ         0.00000   0.00000   0.00000   0.00177
  45        4YZ         0.00000   0.00000   0.00000   0.00000   0.00212
  46 4   O  1S          0.00000   0.00000   0.00000   0.00000   0.00000
  47        2S          0.00000   0.00000   0.00000   0.00000   0.00000
  48        2PX         0.00000   0.00000   0.00000   0.00000   0.00000
  49        2PY         0.00000   0.00000   0.00000   0.00000   0.00000
  50        2PZ         0.00000   0.00000   0.00000   0.00000   0.00000
  51        3S          0.00000   0.00000   0.00000   0.00000   0.00000
  52        3PX         0.00000   0.00000   0.00000   0.00000   0.00000
  53        3PY         0.00000   0.00000   0.00000   0.00000   0.00000
  54        3PZ         0.00000   0.00000   0.00000   0.00000   0.00000
  55        4XX         0.00000   0.00000   0.00000   0.00000   0.00000
  56        4YY         0.00000   0.00000   0.00000   0.00000   0.00000
  57        4ZZ         0.00000   0.00000   0.00000   0.00000   0.00000
  58        4XY         0.00000   0.00000   0.00000   0.00000   0.00000
  59        4XZ         0.00000   0.00000   0.00000   0.00000   0.00000
  60        4YZ         0.00000   0.00000   0.00000   0.00000   0.00000
  61 5   H  1S          0.00000  -0.00002   0.00000   0.00005   0.00000
  62        2S         -0.00003  -0.00070   0.00000  -0.00026   0.00000
  63 6   H  1S          0.00000   0.00000   0.00000   0.00000   0.00000
  64        2S          0.00000   0.00000   0.00000   0.00000   0.00000
  65 7   H  1S          0.00000  -0.00002   0.00000   0.00005   0.00000
  66        2S         -0.00003  -0.00070   0.00000  -0.00026   0.00000
  67 8   H  1S          0.00000   0.00000   0.00000   0.00000   0.00000
  68        2S          0.00000   0.00000   0.00000   0.00000   0.00000
                          46        47        48        49        50
  46 4   O  1S          2.07781
  47        2S         -0.04250   0.51727
  48        2PX         0.00000   0.00000   0.84203
  49        2PY         0.00000   0.00000   0.00000   0.52170
  50        2PZ         0.00000   0.00000   0.00000   0.00000   0.62940
  51        3S         -0.03910   0.42861   0.00000   0.00000   0.00000
  52        3PX         0.00000   0.00000   0.28340   0.00000   0.00000
  53        3PY         0.00000   0.00000   0.00000   0.15377   0.00000
  54        3PZ         0.00000   0.00000   0.00000   0.00000   0.14654
  55        4XX        -0.00042  -0.00539   0.00000   0.00000   0.00000
  56        4YY        -0.00056  -0.00046   0.00000   0.00000   0.00000
  57        4ZZ        -0.00038  -0.00486   0.00000   0.00000   0.00000
  58        4XY         0.00000   0.00000   0.00000   0.00000   0.00000
  59        4XZ         0.00000   0.00000   0.00000   0.00000   0.00000
  60        4YZ         0.00000   0.00000   0.00000   0.00000   0.00000
  61 5   H  1S          0.00000   0.00000   0.00000   0.00000   0.00000
  62        2S          0.00000   0.00000   0.00000   0.00000   0.00000
  63 6   H  1S          0.00000  -0.00007  -0.00033   0.00000  -0.00022
  64        2S          0.00000  -0.00045  -0.00879   0.00000  -0.00447
  65 7   H  1S          0.00000   0.00000   0.00000   0.00000   0.00000
  66        2S          0.00000   0.00000   0.00000   0.00000   0.00000
  67 8   H  1S          0.00000  -0.00007  -0.00033   0.00000  -0.00022
  68        2S          0.00000  -0.00045  -0.00879   0.00000  -0.00447
                          51        52        53        54        55
  51        3S          0.74534
  52        3PX         0.00000   0.38388
  53        3PY         0.00000   0.00000   0.18023
  54        3PZ         0.00000   0.00000   0.00000   0.13861
  55        4XX        -0.00724   0.00000   0.00000   0.00000   0.00033
  56        4YY        -0.00019   0.00000   0.00000   0.00000   0.00006
  57        4ZZ        -0.02113   0.00000   0.00000   0.00000   0.00009
  58        4XY         0.00000   0.00000   0.00000   0.00000   0.00000
  59        4XZ         0.00000   0.00000   0.00000   0.00000   0.00000
  60        4YZ         0.00000   0.00000   0.00000   0.00000   0.00000
  61 5   H  1S          0.00000   0.00000   0.00000   0.00000   0.00000
  62        2S          0.00000  -0.00001   0.00000   0.00000   0.00000
  63 6   H  1S         -0.00010  -0.00650   0.00000  -0.00228  -0.00001
  64        2S          0.00695  -0.03334   0.00000  -0.01036  -0.00003
  65 7   H  1S          0.00000   0.00000   0.00000   0.00000   0.00000
  66        2S          0.00000  -0.00001   0.00000   0.00000   0.00000
  67 8   H  1S         -0.00010  -0.00650   0.00000  -0.00228  -0.00001
  68        2S          0.00695  -0.03334   0.00000  -0.01036  -0.00003
                          56        57        58        59        60
  56        4YY         0.00017
  57        4ZZ         0.00001   0.00356
  58        4XY         0.00000   0.00000   0.00000
  59        4XZ         0.00000   0.00000   0.00000   0.00177
  60        4YZ         0.00000   0.00000   0.00000   0.00000   0.00212
  61 5   H  1S          0.00000   0.00000   0.00000   0.00000   0.00000
  62        2S          0.00000   0.00000   0.00000   0.00000   0.00000
  63 6   H  1S          0.00000  -0.00002   0.00000   0.00005   0.00000
  64        2S         -0.00003  -0.00070   0.00000  -0.00026   0.00000
  65 7   H  1S          0.00000   0.00000   0.00000   0.00000   0.00000
  66        2S          0.00000   0.00000   0.00000   0.00000   0.00000
  67 8   H  1S          0.00000  -0.00002   0.00000   0.00005   0.00000
  68        2S         -0.00003  -0.00070   0.00000  -0.00026   0.00000
                          61        62        63        64        65
  61 5   H  1S          0.22375
  62        2S          0.13138   0.24264
  63 6   H  1S          0.00000   0.00001   0.22375
  64        2S          0.00001   0.00032   0.13138   0.24264
  65 7   H  1S         -0.00091  -0.01706   0.00000   0.00000   0.22375
  66        2S         -0.01706  -0.07440   0.00000  -0.00010   0.13138
  67 8   H  1S          0.00000   0.00000  -0.00091  -0.01706   0.00000
  68        2S          0.00000  -0.00010  -0.01706  -0.07440   0.00001
                          66        67        68
  66        2S          0.24264
  67 8   H  1S          0.00001   0.22375
  68        2S          0.00032   0.13138   0.24264
     Gross orbital populations:
                           1
   1 1   C  1S          1.99111
   2        2S          0.73006
   3        2PX         0.77283
   4        2PY         0.47314
   5        2PZ         0.75812
   6        3S          0.53142
   7        3PX         0.26155
   8        3PY         0.27887
   9        3PZ         0.10804
  10        4XX         0.00802
  11        4YY        -0.02300
  12        4ZZ         0.01973
  13        4XY         0.00000
  14        4XZ         0.04448
  15        4YZ         0.01142
  16 2   C  1S          1.99111
  17        2S          0.73006
  18        2PX         0.77283
  19        2PY         0.47314
  20        2PZ         0.75812
  21        3S          0.53142
  22        3PX         0.26155
  23        3PY         0.27887
  24        3PZ         0.10804
  25        4XX         0.00802
  26        4YY        -0.02300
  27        4ZZ         0.01973
  28        4XY         0.00000
  29        4XZ         0.04448
  30        4YZ         0.01142
  31 3   O  1S          1.99226
  32        2S          0.92193
  33        2PX         1.15205
  34        2PY         0.75153
  35        2PZ         0.95519
  36        3S          0.98336
  37        3PX         0.65335
  38        3PY         0.47243
  39        3PZ         0.38496
  40        4XX        -0.01316
  41        4YY        -0.00154
  42        4ZZ         0.00197
  43        4XY         0.00000
  44        4XZ         0.00808
  45        4YZ         0.01169
  46 4   O  1S          1.99226
  47        2S          0.92193
  48        2PX         1.15205
  49        2PY         0.75153
  50        2PZ         0.95519
  51        3S          0.98336
  52        3PX         0.65335
  53        3PY         0.47243
  54        3PZ         0.38496
  55        4XX        -0.01316
  56        4YY        -0.00154
  57        4ZZ         0.00197
  58        4XY         0.00000
  59        4XZ         0.00808
  60        4YZ         0.01169
  61 5   H  1S          0.53870
  62        2S          0.34136
  63 6   H  1S          0.53870
  64        2S          0.34136
  65 7   H  1S          0.53870
  66        2S          0.34136
  67 8   H  1S          0.53870
  68        2S          0.34136
          Condensed to atoms (all electrons):
               1          2          3          4          5          6
     1  C    4.749227   0.002672   0.571184   0.000539   0.321081   0.000001
     2  C    0.002672   4.749227   0.000539   0.571184   0.000001   0.321081
     3  O    0.571184   0.000539   7.824688  -0.000359  -0.060962  -0.000012
     4  O    0.000539   0.571184  -0.000359   7.824688  -0.000012  -0.060962
     5  H    0.321081   0.000001  -0.060962  -0.000012   0.729148   0.000327
     6  H    0.000001   0.321081  -0.000012  -0.060962   0.000327   0.729148
     7  H    0.321081   0.000001  -0.060962  -0.000012  -0.109424  -0.000103
     8  H    0.000001   0.321081  -0.000012  -0.060962  -0.000103  -0.109424
               7          8
     1  C    0.321081   0.000001
     2  C    0.000001   0.321081
     3  O   -0.060962  -0.000012
     4  O   -0.000012  -0.060962
     5  H   -0.109424  -0.000103
     6  H   -0.000103  -0.109424
     7  H    0.729148   0.000327
     8  H    0.000327   0.729148
 Mulliken charges:
               1
     1  C    0.034214
     2  C    0.034214
     3  O   -0.274103
     4  O   -0.274103
     5  H    0.119945
     6  H    0.119945
     7  H    0.119945
     8  H    0.119945
 Sum of Mulliken charges =   0.00000
 Mulliken charges with hydrogens summed into heavy atoms:
               1
     1  C    0.274103
     2  C    0.274103
     3  O   -0.274103
     4  O   -0.274103
 Electronic spatial extent (au):  <R**2>=            468.1889
 Charge=              0.0000 electrons
 Dipole moment (field-independent basis, Debye):
    X=              0.0000    Y=              0.0000    Z=              3.7489  Tot=              3.7489
 Quadrupole moment (field-independent basis, Debye-Ang):
   XX=            -23.0798   YY=            -22.5304   ZZ=            -23.9482
   XY=              0.0000   XZ=              0.0000   YZ=              0.0000
 Traceless Quadrupole moment (field-independent basis, Debye-Ang):
   XX=              0.1064   YY=              0.6557   ZZ=             -0.7621
   XY=              0.0000   XZ=              0.0000   YZ=              0.0000
 Octapole moment (field-independent basis, Debye-Ang**2):
  XXX=              0.0000  YYY=              0.0000  ZZZ=             -3.4170  XYY=              0.0000
  XXY=              0.0000  XXZ=             -0.5981  XZZ=              0.0000  YZZ=              0.0000
  YYZ=              9.6569  XYZ=              0.0000
 Hexadecapole moment (field-independent basis, Debye-Ang**3):
 XXXX=            -35.9393 YYYY=           -433.5783 ZZZZ=            -86.9263 XXXY=              0.0000
 XXXZ=              0.0000 YYYX=              0.0000 YYYZ=              0.0000 ZZZX=              0.0000
 ZZZY=              0.0000 XXYY=            -79.9727 XXZZ=            -20.3454 YYZZ=            -90.5789
 XXYZ=              0.0000 YYXZ=              0.0000 ZZXY=              0.0000
 N-N= 1.005856574135D+02 E-N=-7.378615968997D+02  KE= 2.270710139055D+02
 Symmetry A1   KE= 1.066086118048D+02
 Symmetry A2   KE= 6.764926808319D+00
 Symmetry B1   KE= 6.679267188439D+00
 Symmetry B2   KE= 1.070182081039D+02
 Orbital energies and kinetic energies (alpha):
                                 1                 2
   1         (B2)--O         -18.789630         29.009878
   2         (A1)--O         -18.789628         29.010325
   3         (B2)--O          -9.987617         15.858120
   4         (A1)--O          -9.987611         15.856985
   5         (A1)--O          -0.980063          2.719703
   6         (B2)--O          -0.979132          2.731190
   7         (A1)--O          -0.576959          1.562990
   8         (B2)--O          -0.573539          1.592192
   9         (B1)--O          -0.446649          1.218582
  10         (A2)--O          -0.444244          1.240398
  11         (A1)--O          -0.391845          2.391723
  12         (B2)--O          -0.390511          2.402628
  13         (A1)--O          -0.371201          1.762580
  14         (B2)--O          -0.357284          1.915096
  15         (B1)--O          -0.215884          2.121052
  16         (A2)--O          -0.213850          2.142066
  17         (A1)--V          -0.086421          1.894970
  18         (B2)--V          -0.064504          2.022677
  19         (A1)--V           0.073647          1.026110
  20         (B2)--V           0.093740          1.091344
  21         (B1)--V           0.152932          1.221872
  22         (A1)--V           0.170543          1.241375
  23         (A2)--V           0.172233          1.269660
  24         (B2)--V           0.216444          1.429459
  25         (A1)--V           0.398007          1.855877
  26         (B2)--V           0.518990          1.833345
  27         (B1)--V           0.565076          1.838170
  28         (A1)--V           0.565078          1.831106
  29         (A2)--V           0.621294          2.014437
  30         (B2)--V           0.639052          3.293533
  31         (A1)--V           0.647589          3.358155
  32         (B2)--V           0.736581          2.233710
  33         (B1)--V           0.767636          2.577980
  34         (A1)--V           0.784207          2.717053
  35         (A2)--V           0.794742          2.583644
  36         (B2)--V           0.801018          2.749612
  37         (A1)--V           0.835574          2.408721
  38         (A1)--V           0.873166          3.399288
  39         (B2)--V           0.908442          2.376998
  40         (B2)--V           0.954078          3.455715
  41         (B1)--V           1.005083          3.109338
  42         (A2)--V           1.023144          3.028741
  43         (A1)--V           1.322165          2.534931
  44         (B2)--V           1.381349          2.654818
  45         (B1)--V           1.428750          2.628160
  46         (A2)--V           1.428781          2.628241
  47         (A1)--V           1.447078          2.807781
  48         (B2)--V           1.455669          2.820233
  49         (A1)--V           1.611526          2.765817
  50         (B2)--V           1.614566          2.761500
  51         (B1)--V           1.791881          3.398616
  52         (A2)--V           1.820479          3.424374
  53         (B1)--V           1.861829          3.030647
  54         (A2)--V           1.861856          3.030853
  55         (A1)--V           2.065257          3.459918
  56         (B2)--V           2.088835          3.447883
  57         (A1)--V           2.223832          4.582649
  58         (B2)--V           2.245329          4.599506
  59         (A1)--V           2.463455          3.803124
  60         (B2)--V           2.499992          3.826694
  61         (B1)--V           2.595136          4.000836
  62         (A2)--V           2.598819          4.008039
  63         (A1)--V           2.847956          5.039463
  64         (B2)--V           2.864136          5.069418
  65         (A1)--V           3.589263         10.171942
  66         (B2)--V           3.652846         10.315182
  67         (A1)--V           3.961825         10.037788
  68         (B2)--V           4.035764         10.089640
 Total kinetic energy from orbitals= 2.270710139055D+02
 Leave Link  601 at Wed Nov 12 12:06:04 2014, MaxMem=    33554432 cpu:         0.1
 (Enter /opt/software/Gaussian/AMD/g09/l9999.exe)

 Test job not archived.
 1\1\GINC-KNECHT01\SP\RPBEPBE TD-FC\6-31G(d)\C2H4O2\FPLASSER\12-Nov-201
 4\0\\#p PBEPBE/6-31G* td=(singlets, nstates=10) pop=full iop(9/40=3)\\
 FaFa\\0,1\C,0,1.75,0.,0.59225\C,0,-1.75,0.,0.59225\O,0,1.75,0.,-0.5953
 7\O,0,-1.75,0.,-0.59537\H,0,1.75,0.9249,1.17073\H,0,-1.75,0.9249,1.170
 73\H,0,1.75,-0.9249,1.17073\H,0,-1.75,-0.9249,1.17073\\Version=AS64L-G
 09RevD.01\State=1-A1\HF=-228.7283584\RMSD=8.065e-09\PG=C02V [SGV(C2O2)
 ,X(H4)]\\@


     SCHOPENHAUER'S LAW OF ENTROPY
 IF YOU PUT A SPOONFUL OF WINE IN A BARREL FULL
 OF SEWAGE, YOU GET SEWAGE.
 IF YOU PUT A SPOONFUL OF SEWAGE IN A BARREL FULL
 OF WINE, YOU GET SEWAGE.
 Job cpu time:       0 days  0 hours  0 minutes 12.1 seconds.
 File lengths (MBytes):  RWF=    143 Int=      0 D2E=      0 Chk=      4 Scr=      2
 Normal termination of Gaussian 09 at Wed Nov 12 12:06:04 2014.
