
                                 *****************
                                 * O   R   C   A *
                                 *****************

           --- An Ab Initio, DFT and Semiempirical electronic structure package ---

                  ######################################################
                  #                        -***-                       #
                  #  Department of molecular theory and spectroscopy   #
                  #              Directorship: Frank Neese             #
                  #   Max Planck Institute for Bioinorganic Chemistry  #
                  #                  D-45470 Muelheim/Ruhr             #
                  #                       Germany                      #
                  #                                                    #
                  #                  All rights reserved               #
                  #                        -***-                       #
                  ######################################################


                         Program Version 2.9.1 -  RELEASE  -


 With contributions from (in alphabetic order):
   Ute Becker             : Parallelization
   Dmitry Ganyushin       : Spin-Orbit,Spin-Spin,Magnetic field MRCI
   Andreas Hansen         : Spin unrestricted coupled pair/coupled cluster methods
   Dimitrios Liakos       : Parallel MDCI
   Robert Izsak           : Overlap fitted RIJCOSX
   Christian Kollmar      : KDIIS, orbital optimized coupled pair methods, Brueckner methods
   Simone Kossmann        : Meta GGA functionals, improved MP2 methods
   Taras Petrenko         : TD-DFT gradient, Resonance Raman, ABS, fluorescence, XAS, NRVS
   Christoph Reimann      : Effective Core Potentials
   Michael Roemelt        : Restricted open shell CI
   Christoph Riplinger    : Improved optimizer, TS searches, QM/MM
   Barbara Sandhoefer     : DKH, picture change effects
   Igor Schapiro          : Molecular dynamics
   Kantharuban Sivalingam : CASSCF and multireference perturbation theory
   Boris Wezisla          : Elementary symmetry handling
   Frank Wennmohs         : Technical directorship


 We gratefully acknowledge several collegues who have allowed us to
 interface, adapt or use parts of their codes:
   Stefan Grimme                                : VdW corrections, initial TS optimization
                                                  and many helpful discussions
   Ed Valeev                                    : LibInt (2-el integral package), F12 methods
   Andreas Klamt, Michael Diedenhofen           : otool_cosmo (COSMO solvation model)
   Frank Weinhold                               : gennbo (NPA and NBO analysis)


 Your calculation uses the libint2 library for the computation of 2-el integrals
 For citations please refer to: http://libint.valeyev.net

Your calculation utilizes the basis: 6-31G
Cite in your paper:
H - He: W.J. Hehre, R. Ditchfield and J.A. Pople, J. Chem. Phys. 56,
Li - Ne: 2257 (1972).  Note: Li and B come from J.D. Dill and J.A.
         Pople, J. Chem. Phys. 62, 2921 (1975).
Na - Ar: M.M. Francl, W.J. Pietro, W.J. Hehre, J.S. Binkley, M.S. Gordon,
         D.J. DeFrees and J.A. Pople, J. Chem. Phys. 77, 3654 (1982)
K  - Zn: V. Rassolov, J.A. Pople, M. Ratner and T.L. Windus, J. Chem. Phys.
         (accepted, 1998)
Note: He and Ne are unpublished basis sets taken from the Gaussian program

================================================================================
                                        WARNINGS
                       Please study these warnings very carefully!
================================================================================

WARNING: The RI method has been chosen with no auxiliary basis (AUX or GTOAUX in BASIS block)
Your calculation utilizes aux bases from the TurboMole library
Cite in your paper:
The Ahlrichs auxiliary basis sets were obtained from the TurboMole
basis set library under ftp.chemie.uni-karlsruhe.de/pub/jbasen
H - Ba; Hf - At:
      1) K. Eichkorn, O. Treutler, H. Ohm, M. Haser and R. Ahlrichs,
         Chem. Phys. Letters 240, 283 (1995).
      2) K. Eichkorn, F. Weigend, O. Treutler, R. Ahlrichs,
         Theor. Chem. Acc. 97, 119 (1997)
Rb-I : uncontracted bases constructed by FN 'by inspection' (01/2002)


        Standard SV/J expansion basis used (GTOAUX=VDZ_J)

Now building the actual basis set
INFO   : Cheking CIS options ...


INFO   : the flag for use of LIBINT has been found!

================================================================================
                                       INPUT FILE
================================================================================
NAME = orca.in
|  1> ! RKS PBE 6-31G*
|  2> %tddft
|  3>  nroots 10
|  4> end
|  5> %output
|  6>  PrintLevel Normal
|  7>  Print[ P_MOs ] 1
|  8>  Print[ P_Overlap ] 1
|  9> end
| 10> 
| 11> %maxcore 4000
| 12> 
| 13> *xyz 0 1
| 14> C          1.75000        0.00000        0.59225
| 15> C         -1.75000        0.00000        0.59225
| 16> O          1.75000        0.00000       -0.59537
| 17> O         -1.75000        0.00000       -0.59537
| 18> H          1.75000        0.92490        1.17073
| 19> H         -1.75000        0.92490        1.17073
| 20> H          1.75000       -0.92490        1.17073
| 21> H         -1.75000       -0.92490        1.17073
| 22> *
| 23> 
| 24>                          ****END OF INPUT****
================================================================================

                       ****************************
                       * Single Point Calculation *
                       ****************************

---------------------------------
CARTESIAN COORDINATES (ANGSTROEM)
---------------------------------
  C      1.750000    0.000000    0.592250
  C     -1.750000    0.000000    0.592250
  O      1.750000    0.000000   -0.595370
  O     -1.750000    0.000000   -0.595370
  H      1.750000    0.924900    1.170730
  H     -1.750000    0.924900    1.170730
  H      1.750000   -0.924900    1.170730
  H     -1.750000   -0.924900    1.170730

----------------------------
CARTESIAN COORDINATES (A.U.)
----------------------------
  NO LB      ZA    FRAG    MASS        X           Y           Z
   0 C     6.0000    0    12.011    3.307021    0.000000    1.119190
   1 C     6.0000    0    12.011   -3.307021    0.000000    1.119190
   2 O     8.0000    0    15.999    3.307021    0.000000   -1.125086
   3 O     8.0000    0    15.999   -3.307021    0.000000   -1.125086
   4 H     1.0000    0     1.008    3.307021    1.747808    2.212359
   5 H     1.0000    0     1.008   -3.307021    1.747808    2.212359
   6 H     1.0000    0     1.008    3.307021   -1.747808    2.212359
   7 H     1.0000    0     1.008   -3.307021   -1.747808    2.212359

--------------------------------
INTERNAL COORDINATES (ANGSTROEM)
--------------------------------
 C      0   0   0   0.000000     0.000     0.000
 C      1   0   0   3.500000     0.000     0.000
 O      1   2   0   1.187620    90.000     0.000
 O      2   1   3   1.187620    90.000     0.000
 H      1   2   3   1.090907    90.000   122.024
 H      2   1   3   1.090907    90.000   237.976
 H      1   2   3   1.090907    90.000   237.976
 H      2   1   3   1.090907    90.000   122.024

---------------------------
INTERNAL COORDINATES (A.U.)
---------------------------
 C      0   0   0   0.000000     0.000     0.000
 C      1   0   0   6.614041     0.000     0.000
 O      1   2   0   2.244277    90.000     0.000
 O      2   1   3   2.244277    90.000     0.000
 H      1   2   3   2.061516    90.000   122.024
 H      2   1   3   2.061516    90.000   237.976
 H      1   2   3   2.061516    90.000   237.976
 H      2   1   3   2.061516    90.000   122.024

---------------------
BASIS SET INFORMATION
---------------------
There are 3 groups of distinct atoms

 Group   1 Type C   : 10s4p1d contracted to 3s2p1d pattern {631/31/1}
 Group   2 Type O   : 10s4p1d contracted to 3s2p1d pattern {631/31/1}
 Group   3 Type H   : 4s contracted to 2s pattern {31}

Atom   0C    basis set group =>   1
Atom   1C    basis set group =>   1
Atom   2O    basis set group =>   2
Atom   3O    basis set group =>   2
Atom   4H    basis set group =>   3
Atom   5H    basis set group =>   3
Atom   6H    basis set group =>   3
Atom   7H    basis set group =>   3
-------------------------------
AUXILIARY BASIS SET INFORMATION
-------------------------------
There are 3 groups of distinct atoms

 Group   1 Type C   : 8s3p3d1f contracted to 6s3p3d1f pattern {311111/111/111/1}
 Group   2 Type O   : 8s3p3d1f contracted to 6s3p3d1f pattern {311111/111/111/1}
 Group   3 Type H   : 4s2p contracted to 2s1p pattern {31/2}

Atom   0C    basis set group =>   1
Atom   1C    basis set group =>   1
Atom   2O    basis set group =>   2
Atom   3O    basis set group =>   2
Atom   4H    basis set group =>   3
Atom   5H    basis set group =>   3
Atom   6H    basis set group =>   3
Atom   7H    basis set group =>   3
------------------------------------------------------------------------------
                           ORCA GTO INTEGRAL CALCULATION
                           -- RI-GTO INTEGRALS CHOSEN --
------------------------------------------------------------------------------

                         BASIS SET STATISTICS AND STARTUP INFO

Gaussian basis set:
 # of primitive gaussian shells          ...   76
 # of primitive gaussian functions       ...  124
 # of contracted shells                  ...   32
 # of contracted basis functions         ...   64
 Highest angular momentum                ...    2
 Maximum contraction depth               ...    6
Auxiliary gaussian basis set:
 # of primitive gaussian shells          ...   84
 # of primitive gaussian functions       ...  196
 # of contracted shells                  ...   64
 # of contracted aux-basis functions     ...  168
 Highest angular momentum                ...    3
 Maximum contraction depth               ...    3
Ratio of auxiliary to basis functions    ...  2.62
Integral package used                  ... LIBINT
 One Electron integrals                  ... done
 Ordering auxiliary basis shells         ... done
 Integral threshhold             Thresh  ...  1.000e-10
 Primitive cut-off               TCut    ...  1.000e-11
 Pre-screening matrix                    ... done
 Shell pair data                         ... 
 Ordering of the shell pairs             ... done (   0.000 sec) 506 of 528 pairs
 Determination of significant pairs      ... done (   0.000 sec)
 Creation of shell pair data             ... done (   0.000 sec)
 Storage of shell pair data              ... done (   0.000 sec)
 Shell pair data done in (   0.001 sec)
 Computing two index integrals           ... done
 Choleksy decomposition of the V-matrix  ... done


Timings:
 Total evaluation time                   ...   0.240 sec (  0.004 min)
 One electron matrix time                ...   0.009 sec (  0.000 min) =  3.7%
 Schwartz matrix evaluation time         ...   0.112 sec (  0.002 min) = 46.6%
 Two index repulsion integral time       ...   0.001 sec (  0.000 min) =  0.5%
 Cholesky decomposition of V             ...   0.001 sec (  0.000 min) =  0.4%
 Three index repulsion integral time     ...   0.000 sec (  0.000 min) =  0.0%

-------------------------------------------------------------------------------
                                 ORCA SCF
-------------------------------------------------------------------------------

------------
SCF SETTINGS
------------
Hamiltonian:
 Density Functional     Method          .... DFT(GTOs)
 Exchange Functional    Exchange        .... PBE
   PBE kappa parameter  XKappa          ....  0.804000
 Correlation Functional Correlation     .... PBE
 LDA part of GGA corr.  LDAOpt          .... PW91-LDA
 Gradients option       PostSCFGGA      .... off
 RI-approximation to the Coulomb term is turned on
   Number of auxiliary basis functions  .... 168


General Settings:
 Integral files         IntName         .... orca
 Hartree-Fock type      HFTyp           .... RHF
 Total Charge           Charge          ....    0
 Multiplicity           Mult            ....    1
 Number of Electrons    NEL             ....   32
 Basis Dimension        Dim             ....   64
 Nuclear Repulsion      ENuc            ....    100.5856573584 Eh

Convergence Acceleration:
 DIIS                   CNVDIIS         .... on
   Start iteration      DIISMaxIt       ....    12
   Startup error        DIISStart       ....  0.200000
   # of expansion vecs  DIISMaxEq       ....     5
   Bias factor          DIISBfac        ....   1.050
   Max. coefficient     DIISMaxC        ....  10.000
 Newton-Raphson         CNVNR           .... off
 SOSCF                  CNVSOSCF        .... on
   Start iteration      SOSCFMaxIt      ....   150
   Startup grad/error   SOSCFStart      ....  0.003300
 Level Shifting         CNVShift        .... on
   Level shift para.    LevelShift      ....    0.2500
   Turn off err/grad.   ShiftErr        ....    0.0010
 Zerner damping         CNVZerner       .... off
 Static damping         CNVDamp         .... on
   Fraction old density DampFac         ....    0.7000
   Max. Damping (<1)    DampMax         ....    0.9800
   Min. Damping (>=0)   DampMin         ....    0.0000
   Turn off err/grad.   DampErr         ....    0.1000
 Fernandez-Rico         CNVRico         .... off

SCF Procedure:
 Maximum # iterations   MaxIter         ....   125
 SCF integral mode      SCFMode         .... Direct
   Integral package                     .... LIBINT
 Reset frequeny         DirectResetFreq ....    20
 Integral Threshold     Thresh          ....  1.000e-10 Eh
 Primitive CutOff       TCut            ....  1.000e-11 Eh

Convergence Tolerance:
 Convergence Check Mode ConvCheckMode   .... Total+1el-Energy
 Energy Change          TolE            ....  1.000e-06 Eh
 1-El. energy change                    ....  1.000e-03 Eh
 Orbital Gradient       TolG            ....  5.000e-05
 Orbital Rotation angle TolX            ....  5.000e-05
 DIIS Error             TolErr          ....  1.000e-06


Diagonalization of the overlap matrix:
Smallest eigenvalue                        ... 1.423e-02
Time for diagonalization                   ...    0.002 sec
Time for construction of square roots      ...    0.001 sec
Total time needed                          ...    0.003 sec

--------------
OVERLAP MATRIX
--------------
                  0          1          2          3          4          5    
      0       1.000000   0.219059  -0.000000  -0.000000   0.000000   0.184261
      1       0.219059   1.000000  -0.000000   0.000000   0.000000   0.812273
      2      -0.000000  -0.000000   1.000000   0.000000   0.000000  -0.000000
      3      -0.000000   0.000000   0.000000   1.000000   0.000000   0.000000
      4       0.000000   0.000000   0.000000   0.000000   1.000000   0.000000
      5       0.184261   0.812273  -0.000000   0.000000   0.000000   1.000000
      6      -0.000000   0.000000   0.569754   0.000000   0.000000   0.000000
      7      -0.000000   0.000000   0.000000   0.569754   0.000000  -0.000000
      8       0.000000   0.000000   0.000000   0.000000   0.569754   0.000000
      9       0.000000   0.000000  -0.000000  -0.000000   0.000000   0.000000
     10       0.000000  -0.000000   0.000000  -0.000000   0.000000   0.000000
     11       0.000000   0.000000   0.000000   0.000000  -0.000000   0.000000
     12       0.000000   0.000000   0.000000   0.000000   0.000000   0.000000
     13       0.000000   0.000000   0.000000   0.000000   0.000000   0.000000
     14       0.000000   0.000000  -0.000000  -0.000000   0.000000   0.000151
     15       0.000000   0.000009  -0.000000  -0.000028   0.000000   0.003115
     16      -0.000000  -0.000000   0.000004   0.000000   0.000000  -0.000000
     17       0.000000   0.000028  -0.000000  -0.000086   0.000000   0.005041
     18       0.000000   0.000000   0.000000   0.000000   0.000004   0.000000
     19       0.000151   0.003115  -0.000000  -0.005041   0.000000   0.024966
     20      -0.000000   0.000000   0.001856   0.000000   0.000000   0.000000
     21       0.000787   0.012840  -0.000000  -0.019245   0.000000   0.067825
     22       0.000000   0.000000   0.000000   0.000000   0.001856   0.000000
     23       0.000000  -0.000005   0.000000   0.000018   0.000000  -0.001825
     24       0.000000   0.000000   0.000002   0.000000   0.000000   0.000000
     25       0.000000   0.000000   0.000000   0.000000   0.000000   0.000000
     26       0.000000   0.000009   0.000000  -0.000031   0.000000   0.003161
     27       0.000000   0.000000   0.000000   0.000000   0.000002   0.000000
     28       0.000004   0.023499  -0.048011   0.000000   0.000000   0.052028
     29       0.009684   0.184802  -0.289653   0.000000   0.000000   0.297304
     30       0.022743   0.214595  -0.286863   0.000000   0.000000   0.148229
     31      -0.000000   0.000000  -0.000000   0.097569   0.000000   0.000000
     32       0.000000   0.000000   0.000000   0.000000   0.097569   0.000000
     33       0.070318   0.387667  -0.342677   0.000000   0.000000   0.568889
     34       0.154830   0.586874  -0.260818   0.000000   0.000000   0.510252
     35      -0.000000   0.000000  -0.000000   0.293847   0.000000   0.000000
     36       0.000000   0.000000   0.000000   0.000000   0.293847   0.000000
     37       0.106170   0.283388  -0.259027   0.000000   0.000000   0.092429
     38       0.000000  -0.000000  -0.000000   0.269953   0.000000  -0.000000
     39       0.000000   0.000000   0.000000   0.000000   0.269953   0.000000
     40       0.000000   0.000000   0.000000   0.000000   0.000000   0.000000
     41       0.000000   0.000000   0.000000   0.000000   0.000000   0.000000
     42       0.000000   0.000000   0.000000   0.000000   0.000000   0.000038
     43       0.000000   0.000000  -0.000000  -0.000000   0.000000   0.000552
     44       0.000000   0.000000  -0.000000  -0.000000   0.000000   0.000250
     45       0.000000   0.000000  -0.000000  -0.000000   0.000000   0.000737
     46       0.000000   0.000000   0.000000   0.000000   0.000000   0.000000
     47       0.000001   0.000156  -0.000113  -0.000334   0.000000   0.006058
     48       0.000002   0.000243  -0.000080  -0.000523   0.000000   0.005434
     49       0.000007   0.000715  -0.000523  -0.001444   0.000000   0.016014
     50       0.000000   0.000000   0.000000   0.000000   0.000097   0.000000
     51       0.000000  -0.000001   0.000001   0.000003   0.000000  -0.000696
     52       0.000000   0.000001  -0.000001  -0.000004   0.000000   0.001063
     53       0.000000   0.000000   0.000000   0.000000   0.000000   0.000000
     54       0.000000   0.000002  -0.000002  -0.000006   0.000000   0.001567
     55       0.000000   0.000000   0.000000   0.000000   0.000000   0.000000
     56       0.032609   0.273116   0.195552  -0.000000   0.312657   0.376677
     57       0.092101   0.475730   0.140914   0.000000   0.225299   0.704119
     58       0.000000   0.000001   0.000000  -0.000002   0.000001   0.001018
     59       0.000102   0.002185   0.000563  -0.003408   0.000901   0.019103
     60       0.032609   0.273116   0.195552  -0.000000  -0.312657   0.376677
     61       0.092101   0.475730   0.140914   0.000000  -0.225299   0.704119
     62       0.000000   0.000001   0.000000  -0.000002  -0.000001   0.001018
     63       0.000102   0.002185   0.000563  -0.003408  -0.000901   0.019103
                  6          7          8          9         10         11    
      0      -0.000000  -0.000000   0.000000   0.000000   0.000000   0.000000
      1       0.000000   0.000000   0.000000   0.000000  -0.000000   0.000000
      2       0.569754   0.000000   0.000000  -0.000000   0.000000   0.000000
      3       0.000000   0.569754   0.000000  -0.000000  -0.000000   0.000000
      4       0.000000   0.000000   0.569754   0.000000   0.000000  -0.000000
      5       0.000000  -0.000000   0.000000   0.000000   0.000000   0.000000
      6       1.000000   0.000000   0.000000   0.000000  -0.000000   0.000000
      7       0.000000   1.000000   0.000000   0.000000   0.000000   0.000000
      8       0.000000   0.000000   1.000000   0.000000   0.000000   0.000000
      9       0.000000   0.000000   0.000000   1.000000   0.000000   0.000000
     10      -0.000000   0.000000   0.000000   0.000000   1.000000   0.000000
     11       0.000000   0.000000   0.000000   0.000000   0.000000   1.000000
     12       0.000000  -0.000000   0.000000  -0.000000   0.000000   0.000000
     13       0.000000   0.000000  -0.000000   0.000000   0.000000   0.000000
     14      -0.000000  -0.000787   0.000000   0.000000   0.000000   0.000000
     15       0.000000  -0.012840   0.000000  -0.000005   0.000000   0.000000
     16       0.001856   0.000000   0.000000   0.000000  -0.000002   0.000000
     17      -0.000000  -0.019245   0.000000  -0.000018   0.000000   0.000000
     18       0.000000   0.000000   0.001856   0.000000   0.000000   0.000000
     19       0.000000  -0.067825   0.000000  -0.001825   0.000000   0.000000
     20       0.024966   0.000000   0.000000   0.000000  -0.002327   0.000000
     21       0.000000  -0.159294   0.000000  -0.006846   0.000000   0.000000
     22       0.000000   0.000000   0.024966   0.000000   0.000000   0.000000
     23       0.000000   0.006846   0.000000   0.000002   0.000000   0.000000
     24       0.002327   0.000000   0.000000   0.000000  -0.000001   0.000000
     25       0.000000   0.000000   0.000000   0.000000   0.000000   0.000000
     26       0.000000  -0.011857   0.000000  -0.000004   0.000000   0.000000
     27       0.000000   0.000000   0.002327   0.000000   0.000000   0.000000
     28      -0.094012   0.000000   0.000000   0.067480   0.000000   0.000000
     29      -0.465679   0.000000   0.000000   0.313272   0.000000   0.000000
     30      -0.076389   0.000000   0.000000   0.303403  -0.000000   0.000000
     31       0.000000   0.160798   0.000000   0.000000  -0.190932   0.000000
     32       0.000000   0.000000   0.160798   0.000000   0.000000  -0.190932
     33      -0.645499   0.000000   0.000000   0.173558   0.000000   0.000000
     34      -0.025447   0.000000   0.000000   0.004997   0.000000   0.000000
     35       0.000000   0.553519   0.000000   0.000000  -0.257776   0.000000
     36       0.000000   0.000000   0.553519   0.000000   0.000000  -0.257776
     37       0.059804   0.000000   0.000000   0.138629   0.000000   0.000000
     38       0.000000   0.173667   0.000000   0.000000  -0.404001   0.000000
     39       0.000000   0.000000   0.173667   0.000000   0.000000  -0.404001
     40       0.000000  -0.000000   0.000000   0.000000   0.000000   0.000000
     41       0.000000   0.000000  -0.000000   0.000000   0.000000   0.000000
     42      -0.000068  -0.000200   0.000000   0.000000   0.000000   0.000000
     43      -0.000869  -0.002562   0.000000  -0.000000   0.000000   0.000000
     44      -0.000127  -0.001173   0.000000  -0.000000   0.000000   0.000000
     45      -0.001173  -0.003184   0.000000  -0.000000   0.000000   0.000000
     46       0.000000   0.000000   0.000271   0.000000   0.000000  -0.000000
     47      -0.006874  -0.020259   0.000000  -0.000085   0.000129   0.000000
     48      -0.000271  -0.018171   0.000000  -0.000191   0.000115   0.000000
     49      -0.018171  -0.047655   0.000000  -0.000372   0.000628   0.000000
     50       0.000000   0.000000   0.005895   0.000000   0.000000  -0.000038
     51       0.001512   0.002459   0.000000   0.000000  -0.000000   0.000000
     52      -0.000466  -0.004380   0.000000  -0.000000   0.000000   0.000000
     53       0.000000   0.000000   0.000391   0.000000   0.000000  -0.000000
     54      -0.002386  -0.005878   0.000000  -0.000000   0.000001   0.000000
     55       0.000000   0.000000   0.001154   0.000000   0.000000  -0.000000
     56       0.273060  -0.000000   0.436581  -0.026438   0.000000   0.263218
     57       0.309037  -0.000000   0.494102  -0.006313   0.000000   0.062853
     58       0.000729  -0.004409   0.001165  -0.000000  -0.000000   0.000000
     59       0.008384  -0.050728   0.013405  -0.001189  -0.000670   0.000177
     60       0.273060  -0.000000  -0.436581  -0.026438   0.000000  -0.263218
     61       0.309037  -0.000000  -0.494102  -0.006313   0.000000  -0.062853
     62       0.000729  -0.004409  -0.001165  -0.000000  -0.000000  -0.000000
     63       0.008384  -0.050728  -0.013405  -0.001189  -0.000670  -0.000177
                 12         13         14         15         16         17    
      0       0.000000   0.000000   0.000000   0.000000  -0.000000   0.000000
      1       0.000000   0.000000   0.000000   0.000009  -0.000000   0.000028
      2       0.000000   0.000000  -0.000000  -0.000000   0.000004  -0.000000
      3       0.000000   0.000000  -0.000000  -0.000028   0.000000  -0.000086
      4       0.000000   0.000000   0.000000   0.000000   0.000000   0.000000
      5       0.000000   0.000000   0.000151   0.003115  -0.000000   0.005041
      6       0.000000   0.000000  -0.000000   0.000000   0.001856  -0.000000
      7      -0.000000   0.000000  -0.000787  -0.012840   0.000000  -0.019245
      8       0.000000  -0.000000   0.000000   0.000000   0.000000   0.000000
      9      -0.000000   0.000000   0.000000  -0.000005   0.000000  -0.000018
     10       0.000000   0.000000   0.000000   0.000000  -0.000002   0.000000
     11       0.000000   0.000000   0.000000   0.000000   0.000000   0.000000
     12       1.000000   0.000000   0.000000   0.000009   0.000000   0.000031
     13       0.000000   1.000000   0.000000   0.000000   0.000000   0.000000
     14       0.000000   0.000000   1.000000   0.219059  -0.000000   0.000000
     15       0.000009   0.000000   0.219059   1.000000  -0.000000  -0.000000
     16       0.000000   0.000000  -0.000000  -0.000000   1.000000  -0.000000
     17       0.000031   0.000000   0.000000  -0.000000  -0.000000   1.000000
     18       0.000000  -0.000002   0.000000   0.000000   0.000000   0.000000
     19       0.003161   0.000000   0.184261   0.812273  -0.000000  -0.000000
     20       0.000000   0.000000  -0.000000   0.000000   0.569754  -0.000000
     21       0.011857   0.000000   0.000000  -0.000000  -0.000000   0.569754
     22       0.000000  -0.002327   0.000000   0.000000   0.000000   0.000000
     23      -0.000004   0.000000   0.000000   0.000000  -0.000000   0.000000
     24       0.000000   0.000000  -0.000000   0.000000  -0.000000  -0.000000
     25       0.000000   0.000000   0.000000   0.000000   0.000000   0.000000
     26       0.000007   0.000000   0.000000   0.000000   0.000000  -0.000000
     27       0.000000  -0.000001   0.000000   0.000000   0.000000   0.000000
     28       0.000000   0.000000   0.000000   0.000000   0.000000   0.000000
     29       0.000000   0.000000   0.000000   0.000000  -0.000000   0.000000
     30       0.000000   0.000000   0.000000   0.000000  -0.000000   0.000000
     31       0.000000   0.000000   0.000000  -0.000000   0.000000  -0.000000
     32       0.000000   0.000000   0.000000   0.000000   0.000000   0.000000
     33       0.000000   0.000000   0.000001   0.000156  -0.000113   0.000334
     34       0.000000   0.000000   0.000002   0.000243  -0.000080   0.000523
     35       0.000000   0.000000  -0.000007  -0.000715   0.000523  -0.001444
     36       0.000000   0.000000   0.000000   0.000000   0.000000   0.000000
     37       0.000000   0.000000   0.000000  -0.000001   0.000001  -0.000003
     38       0.000000   0.000000   0.000000  -0.000001   0.000001  -0.000004
     39       0.000000   0.000000   0.000000   0.000000   0.000000   0.000000
     40       0.133359   0.000000   0.000000   0.000002  -0.000002   0.000006
     41       0.000000   0.133359   0.000000   0.000000   0.000000   0.000000
     42       0.000000   0.000000   0.000004   0.023499  -0.048011  -0.000000
     43       0.000000   0.000000   0.009684   0.184802  -0.289653  -0.000000
     44       0.000000   0.000000   0.022743   0.214595  -0.286863  -0.000000
     45       0.000000   0.000000   0.000000  -0.000000   0.000000   0.097569
     46       0.000000  -0.000000   0.000000   0.000000   0.000000   0.000000
     47       0.000191   0.000000   0.070318   0.387667  -0.342677  -0.000000
     48       0.000333   0.000000   0.154830   0.586874  -0.260818  -0.000000
     49       0.000869   0.000000   0.000000  -0.000000   0.000000   0.293847
     50       0.000000  -0.000111   0.000000   0.000000   0.000000   0.000000
     51      -0.000000   0.000000   0.106170   0.283388  -0.259027  -0.000000
     52       0.000001   0.000000  -0.000000   0.000000   0.000000   0.269953
     53       0.000000  -0.000000   0.000000   0.000000   0.000000   0.000000
     54       0.000001   0.000000   0.000000   0.000000   0.000000  -0.000000
     55       0.000000  -0.000000   0.000000   0.000000   0.000000   0.000000
     56      -0.210422   0.000000   0.000000   0.000001   0.000000   0.000002
     57      -0.050246   0.000000   0.000102   0.002185   0.000563   0.003408
     58       0.000000  -0.000000   0.032609   0.273116   0.195552   0.000000
     59       0.001886  -0.001072   0.092101   0.475730   0.140914  -0.000000
     60      -0.210422  -0.000000   0.000000   0.000001   0.000000   0.000002
     61      -0.050246  -0.000000   0.000102   0.002185   0.000563   0.003408
     62       0.000000   0.000000   0.032609   0.273116   0.195552   0.000000
     63       0.001886   0.001072   0.092101   0.475730   0.140914  -0.000000
                 18         19         20         21         22         23    
      0       0.000000   0.000151  -0.000000   0.000787   0.000000   0.000000
      1       0.000000   0.003115   0.000000   0.012840   0.000000  -0.000005
      2       0.000000  -0.000000   0.001856  -0.000000   0.000000   0.000000
      3       0.000000  -0.005041   0.000000  -0.019245   0.000000   0.000018
      4       0.000004   0.000000   0.000000   0.000000   0.001856   0.000000
      5       0.000000   0.024966   0.000000   0.067825   0.000000  -0.001825
      6       0.000000   0.000000   0.024966   0.000000   0.000000   0.000000
      7       0.000000  -0.067825   0.000000  -0.159294   0.000000   0.006846
      8       0.001856   0.000000   0.000000   0.000000   0.024966   0.000000
      9       0.000000  -0.001825   0.000000  -0.006846   0.000000   0.000002
     10       0.000000   0.000000  -0.002327   0.000000   0.000000   0.000000
     11       0.000000   0.000000   0.000000   0.000000   0.000000   0.000000
     12       0.000000   0.003161   0.000000   0.011857   0.000000  -0.000004
     13      -0.000002   0.000000   0.000000   0.000000  -0.002327   0.000000
     14       0.000000   0.184261  -0.000000   0.000000   0.000000   0.000000
     15       0.000000   0.812273   0.000000  -0.000000   0.000000   0.000000
     16       0.000000  -0.000000   0.569754  -0.000000   0.000000  -0.000000
     17       0.000000  -0.000000  -0.000000   0.569754   0.000000   0.000000
     18       1.000000   0.000000   0.000000   0.000000   0.569754   0.000000
     19       0.000000   1.000000   0.000000   0.000000   0.000000   0.000000
     20       0.000000   0.000000   1.000000   0.000000   0.000000   0.000000
     21       0.000000   0.000000   0.000000   1.000000   0.000000  -0.000000
     22       0.569754   0.000000   0.000000   0.000000   1.000000   0.000000
     23       0.000000   0.000000   0.000000  -0.000000   0.000000   1.000000
     24       0.000000   0.000000   0.000000   0.000000   0.000000   0.000000
     25      -0.000000   0.000000   0.000000   0.000000   0.000000   0.000000
     26       0.000000   0.000000   0.000000   0.000000   0.000000  -0.000000
     27      -0.000000   0.000000   0.000000   0.000000   0.000000   0.000000
     28       0.000000   0.000038  -0.000068   0.000200   0.000000   0.000000
     29       0.000000   0.000552  -0.000869   0.002562   0.000000  -0.000000
     30       0.000000   0.000250  -0.000127   0.001173   0.000000  -0.000000
     31       0.000000  -0.000737   0.001173  -0.003184   0.000000   0.000000
     32       0.000000   0.000000   0.000000   0.000000   0.000271   0.000000
     33       0.000000   0.006058  -0.006874   0.020259   0.000000  -0.000085
     34       0.000000   0.005434  -0.000271   0.018171   0.000000  -0.000191
     35       0.000000  -0.016014   0.018171  -0.047655   0.000000   0.000372
     36       0.000097   0.000000   0.000000   0.000000   0.005895   0.000000
     37       0.000000  -0.000696   0.001512  -0.002459   0.000000   0.000000
     38       0.000000  -0.001063   0.000466  -0.004380   0.000000   0.000000
     39       0.000000   0.000000   0.000000   0.000000   0.000391   0.000000
     40       0.000000   0.001567  -0.002386   0.005878   0.000000  -0.000000
     41      -0.000000   0.000000   0.000000   0.000000  -0.001154   0.000000
     42       0.000000   0.052028  -0.094012  -0.000000   0.000000   0.067480
     43       0.000000   0.297304  -0.465679   0.000000   0.000000   0.313272
     44       0.000000   0.148229  -0.076389   0.000000   0.000000   0.303403
     45       0.000000   0.000000   0.000000   0.160798   0.000000  -0.000000
     46       0.097569   0.000000   0.000000   0.000000   0.160798   0.000000
     47       0.000000   0.568889  -0.645499   0.000000   0.000000   0.173558
     48       0.000000   0.510252  -0.025447   0.000000   0.000000   0.004997
     49       0.000000   0.000000   0.000000   0.553519   0.000000   0.000000
     50       0.293847   0.000000   0.000000   0.000000   0.553519   0.000000
     51       0.000000   0.092429   0.059804  -0.000000   0.000000   0.138629
     52       0.000000   0.000000  -0.000000   0.173667   0.000000   0.000000
     53       0.269953   0.000000   0.000000   0.000000   0.173667   0.000000
     54       0.000000   0.000000   0.000000   0.000000   0.000000   0.000000
     55      -0.000000   0.000000   0.000000   0.000000   0.000000   0.000000
     56       0.000001   0.001018   0.000729   0.004409   0.001165  -0.000000
     57       0.000901   0.019103   0.008384   0.050728   0.013405  -0.001189
     58       0.312657   0.376677   0.273060   0.000000   0.436581  -0.026438
     59       0.225299   0.704119   0.309037   0.000000   0.494102  -0.006313
     60      -0.000001   0.001018   0.000729   0.004409  -0.001165  -0.000000
     61      -0.000901   0.019103   0.008384   0.050728  -0.013405  -0.001189
     62      -0.312657   0.376677   0.273060   0.000000  -0.436581  -0.026438
     63      -0.225299   0.704119   0.309037   0.000000  -0.494102  -0.006313
                 24         25         26         27         28         29    
      0       0.000000   0.000000   0.000000   0.000000   0.000004   0.009684
      1       0.000000   0.000000   0.000009   0.000000   0.023499   0.184802
      2       0.000002   0.000000   0.000000   0.000000  -0.048011  -0.289653
      3       0.000000   0.000000  -0.000031   0.000000   0.000000   0.000000
      4       0.000000   0.000000   0.000000   0.000002   0.000000   0.000000
      5       0.000000   0.000000   0.003161   0.000000   0.052028   0.297304
      6       0.002327   0.000000   0.000000   0.000000  -0.094012  -0.465679
      7       0.000000   0.000000  -0.011857   0.000000   0.000000   0.000000
      8       0.000000   0.000000   0.000000   0.002327   0.000000   0.000000
      9       0.000000   0.000000  -0.000004   0.000000   0.067480   0.313272
     10      -0.000001   0.000000   0.000000   0.000000   0.000000   0.000000
     11       0.000000   0.000000   0.000000   0.000000   0.000000   0.000000
     12       0.000000   0.000000   0.000007   0.000000   0.000000   0.000000
     13       0.000000   0.000000   0.000000  -0.000001   0.000000   0.000000
     14      -0.000000   0.000000   0.000000   0.000000   0.000000   0.000000
     15       0.000000   0.000000   0.000000   0.000000   0.000000   0.000000
     16      -0.000000   0.000000   0.000000   0.000000   0.000000  -0.000000
     17      -0.000000   0.000000  -0.000000   0.000000   0.000000   0.000000
     18       0.000000  -0.000000   0.000000  -0.000000   0.000000   0.000000
     19       0.000000   0.000000   0.000000   0.000000   0.000038   0.000552
     20       0.000000   0.000000   0.000000   0.000000  -0.000068  -0.000869
     21       0.000000   0.000000   0.000000   0.000000   0.000200   0.002562
     22       0.000000   0.000000   0.000000   0.000000   0.000000   0.000000
     23       0.000000   0.000000  -0.000000   0.000000   0.000000  -0.000000
     24       1.000000   0.000000   0.000000   0.000000   0.000000  -0.000000
     25       0.000000   1.000000   0.000000   0.000000   0.000000   0.000000
     26       0.000000   0.000000   1.000000   0.000000   0.000000   0.000000
     27       0.000000   0.000000   0.000000   1.000000   0.000000   0.000000
     28       0.000000   0.000000   0.000000   0.000000   1.000000   0.233690
     29      -0.000000   0.000000   0.000000   0.000000   0.233690   1.000000
     30      -0.000000   0.000000   0.000000   0.000000  -0.000000   0.000000
     31       0.000000   0.000000  -0.000000   0.000000   0.000000   0.000000
     32       0.000000  -0.000000   0.000000   0.000000   0.000000   0.000000
     33      -0.000129   0.000000   0.000191   0.000000   0.167280   0.763641
     34      -0.000115   0.000000   0.000333   0.000000  -0.000000  -0.000000
     35       0.000628   0.000000  -0.000869   0.000000   0.000000   0.000000
     36       0.000000  -0.000038   0.000000   0.000111   0.000000   0.000000
     37       0.000000   0.000000  -0.000000   0.000000   0.000000   0.000000
     38       0.000000   0.000000  -0.000001   0.000000  -0.000000   0.000000
     39       0.000000  -0.000000   0.000000   0.000000   0.000000   0.000000
     40      -0.000001   0.000000   0.000001   0.000000   0.000000   0.000000
     41       0.000000   0.000000   0.000000  -0.000000   0.000000   0.000000
     42      -0.000000   0.000000   0.000000   0.000000   0.000000   0.000000
     43      -0.000000   0.000000   0.000000   0.000000   0.000000   0.000000
     44       0.000000   0.000000   0.000000   0.000000   0.000000   0.000000
     45      -0.190932   0.000000  -0.000000   0.000000   0.000000   0.000000
     46       0.000000  -0.190932   0.000000  -0.000000   0.000000   0.000000
     47       0.000000   0.000000   0.000000   0.000000   0.000002   0.000073
     48       0.000000   0.000000   0.000000   0.000000  -0.000000  -0.000000
     49      -0.257776   0.000000   0.000000   0.000000   0.000012   0.000395
     50       0.000000  -0.257776   0.000000   0.000000   0.000000   0.000000
     51       0.000000   0.000000   0.000000   0.000000   0.000000  -0.000000
     52      -0.404001   0.000000   0.000000   0.000000   0.000000   0.000000
     53       0.000000  -0.404001   0.000000   0.000000   0.000000   0.000000
     54       0.000000   0.000000   0.133359   0.000000   0.000000   0.000000
     55       0.000000   0.000000   0.000000   0.133359   0.000000   0.000000
     56       0.000000   0.000000   0.000000   0.000000   0.000054   0.003344
     57       0.000670   0.000177   0.001886   0.001072   0.012265   0.084286
     58      -0.000000   0.263218  -0.210422  -0.000000   0.000000   0.000000
     59      -0.000000   0.062853  -0.050246  -0.000000   0.000012   0.000198
     60       0.000000  -0.000000   0.000000  -0.000000   0.000054   0.003344
     61       0.000670  -0.000177   0.001886  -0.001072   0.012265   0.084286
     62      -0.000000  -0.263218  -0.210422   0.000000   0.000000   0.000000
     63      -0.000000  -0.062853  -0.050246   0.000000   0.000012   0.000198
                 30         31         32         33         34         35    
      0       0.022743  -0.000000   0.000000   0.070318   0.154830  -0.000000
      1       0.214595   0.000000   0.000000   0.387667   0.586874   0.000000
      2      -0.286863  -0.000000   0.000000  -0.342677  -0.260818  -0.000000
      3       0.000000   0.097569   0.000000   0.000000   0.000000   0.293847
      4       0.000000   0.000000   0.097569   0.000000   0.000000   0.000000
      5       0.148229   0.000000   0.000000   0.568889   0.510252   0.000000
      6      -0.076389   0.000000   0.000000  -0.645499  -0.025447   0.000000
      7       0.000000   0.160798   0.000000   0.000000   0.000000   0.553519
      8       0.000000   0.000000   0.160798   0.000000   0.000000   0.000000
      9       0.303403   0.000000   0.000000   0.173558   0.004997   0.000000
     10      -0.000000  -0.190932   0.000000   0.000000   0.000000  -0.257776
     11       0.000000   0.000000  -0.190932   0.000000   0.000000   0.000000
     12       0.000000   0.000000   0.000000   0.000000   0.000000   0.000000
     13       0.000000   0.000000   0.000000   0.000000   0.000000   0.000000
     14       0.000000   0.000000   0.000000   0.000001   0.000002  -0.000007
     15       0.000000  -0.000000   0.000000   0.000156   0.000243  -0.000715
     16      -0.000000   0.000000   0.000000  -0.000113  -0.000080   0.000523
     17       0.000000  -0.000000   0.000000   0.000334   0.000523  -0.001444
     18       0.000000   0.000000   0.000000   0.000000   0.000000   0.000000
     19       0.000250  -0.000737   0.000000   0.006058   0.005434  -0.016014
     20      -0.000127   0.001173   0.000000  -0.006874  -0.000271   0.018171
     21       0.001173  -0.003184   0.000000   0.020259   0.018171  -0.047655
     22       0.000000   0.000000   0.000271   0.000000   0.000000   0.000000
     23      -0.000000   0.000000   0.000000  -0.000085  -0.000191   0.000372
     24      -0.000000   0.000000   0.000000  -0.000129  -0.000115   0.000628
     25       0.000000   0.000000  -0.000000   0.000000   0.000000   0.000000
     26       0.000000  -0.000000   0.000000   0.000191   0.000333  -0.000869
     27       0.000000   0.000000   0.000000   0.000000   0.000000   0.000000
     28      -0.000000   0.000000   0.000000   0.167280  -0.000000   0.000000
     29       0.000000   0.000000   0.000000   0.763641  -0.000000   0.000000
     30       1.000000   0.000000   0.000000   0.000000   0.501521   0.000000
     31       0.000000   1.000000   0.000000  -0.000000   0.000000   0.501521
     32       0.000000   0.000000   1.000000   0.000000   0.000000   0.000000
     33       0.000000  -0.000000   0.000000   1.000000   0.000000   0.000000
     34       0.501521   0.000000   0.000000   0.000000   1.000000   0.000000
     35       0.000000   0.501521   0.000000   0.000000   0.000000   1.000000
     36       0.000000   0.000000   0.501521   0.000000   0.000000   0.000000
     37       0.000000  -0.000000   0.000000   0.000000   0.000000   0.000000
     38       0.000000   0.000000   0.000000   0.000000   0.000000   0.000000
     39       0.000000   0.000000   0.000000   0.000000   0.000000   0.000000
     40       0.000000   0.000000   0.000000   0.000000   0.000000   0.000000
     41       0.000000   0.000000   0.000000   0.000000   0.000000   0.000000
     42       0.000000   0.000000   0.000000   0.000002  -0.000000  -0.000012
     43       0.000000  -0.000000   0.000000   0.000073  -0.000000  -0.000395
     44       0.000000   0.000000   0.000000   0.000000   0.000040  -0.000000
     45       0.000000  -0.000000   0.000000   0.000137   0.000000  -0.000708
     46       0.000000   0.000000   0.000000   0.000000   0.000000   0.000000
     47       0.000000  -0.000137   0.000000   0.002724   0.000000  -0.009361
     48       0.000040  -0.000000   0.000000   0.000000   0.002724   0.000000
     49       0.000000  -0.000708   0.000000   0.009361   0.000000  -0.029447
     50       0.000000   0.000000   0.000040   0.000000   0.000000   0.000000
     51       0.000000   0.000000   0.000000  -0.000304   0.000000   0.001387
     52       0.000000   0.000000   0.000000   0.000000   0.000307   0.000000
     53       0.000000   0.000000   0.000000   0.000000   0.000000   0.000000
     54       0.000000  -0.000000   0.000000   0.000527   0.000000  -0.002403
     55       0.000000   0.000000   0.000000   0.000000   0.000000   0.000000
     56       0.005808   0.000000   0.003041   0.051076   0.126870   0.000000
     57       0.058647   0.000000   0.030713   0.227108   0.294561   0.000000
     58       0.000000  -0.000000   0.000000   0.000012   0.000029  -0.000058
     59       0.000127  -0.000252   0.000067   0.002742   0.003556  -0.007047
     60       0.005808   0.000000  -0.003041   0.051076   0.126870   0.000000
     61       0.058647   0.000000  -0.030713   0.227108   0.294561   0.000000
     62       0.000000  -0.000000  -0.000000   0.000012   0.000029  -0.000058
     63       0.000127  -0.000252  -0.000067   0.002742   0.003556  -0.007047
                 36         37         38         39         40         41    
      0       0.000000   0.106170   0.000000   0.000000   0.000000   0.000000
      1       0.000000   0.283388  -0.000000   0.000000   0.000000   0.000000
      2       0.000000  -0.259027  -0.000000   0.000000   0.000000   0.000000
      3       0.000000   0.000000   0.269953   0.000000   0.000000   0.000000
      4       0.293847   0.000000   0.000000   0.269953   0.000000   0.000000
      5       0.000000   0.092429  -0.000000   0.000000   0.000000   0.000000
      6       0.000000   0.059804   0.000000   0.000000   0.000000   0.000000
      7       0.000000   0.000000   0.173667   0.000000  -0.000000   0.000000
      8       0.553519   0.000000   0.000000   0.173667   0.000000  -0.000000
      9       0.000000   0.138629   0.000000   0.000000   0.000000   0.000000
     10       0.000000   0.000000  -0.404001   0.000000   0.000000   0.000000
     11      -0.257776   0.000000   0.000000  -0.404001   0.000000   0.000000
     12       0.000000   0.000000   0.000000   0.000000   0.133359   0.000000
     13       0.000000   0.000000   0.000000   0.000000   0.000000   0.133359
     14       0.000000   0.000000   0.000000   0.000000   0.000000   0.000000
     15       0.000000  -0.000001  -0.000001   0.000000   0.000002   0.000000
     16       0.000000   0.000001   0.000001   0.000000  -0.000002   0.000000
     17       0.000000  -0.000003  -0.000004   0.000000   0.000006   0.000000
     18       0.000097   0.000000   0.000000   0.000000   0.000000  -0.000000
     19       0.000000  -0.000696  -0.001063   0.000000   0.001567   0.000000
     20       0.000000   0.001512   0.000466   0.000000  -0.002386   0.000000
     21       0.000000  -0.002459  -0.004380   0.000000   0.005878   0.000000
     22       0.005895   0.000000   0.000000   0.000391   0.000000  -0.001154
     23       0.000000   0.000000   0.000000   0.000000  -0.000000   0.000000
     24       0.000000   0.000000   0.000000   0.000000  -0.000001   0.000000
     25      -0.000038   0.000000   0.000000  -0.000000   0.000000   0.000000
     26       0.000000  -0.000000  -0.000001   0.000000   0.000001   0.000000
     27       0.000111   0.000000   0.000000   0.000000   0.000000  -0.000000
     28       0.000000   0.000000  -0.000000   0.000000   0.000000   0.000000
     29       0.000000   0.000000   0.000000   0.000000   0.000000   0.000000
     30       0.000000   0.000000   0.000000   0.000000   0.000000   0.000000
     31       0.000000  -0.000000   0.000000   0.000000   0.000000   0.000000
     32       0.501521   0.000000   0.000000   0.000000   0.000000   0.000000
     33       0.000000   0.000000   0.000000   0.000000   0.000000   0.000000
     34       0.000000   0.000000   0.000000   0.000000   0.000000   0.000000
     35       0.000000   0.000000   0.000000   0.000000   0.000000   0.000000
     36       1.000000   0.000000   0.000000   0.000000   0.000000   0.000000
     37       0.000000   1.000000   0.000000   0.000000  -0.000000   0.000000
     38       0.000000   0.000000   1.000000   0.000000   0.000000   0.000000
     39       0.000000   0.000000   0.000000   1.000000   0.000000   0.000000
     40       0.000000  -0.000000   0.000000   0.000000   1.000000   0.000000
     41       0.000000   0.000000   0.000000   0.000000   0.000000   1.000000
     42       0.000000   0.000000   0.000000   0.000000   0.000000   0.000000
     43       0.000000  -0.000000   0.000000   0.000000   0.000000   0.000000
     44       0.000000   0.000000  -0.000000   0.000000   0.000000   0.000000
     45       0.000000  -0.000000   0.000000   0.000000   0.000000   0.000000
     46       0.000040   0.000000   0.000000   0.000000   0.000000  -0.000000
     47       0.000000  -0.000304   0.000000   0.000000   0.000527   0.000000
     48       0.000000   0.000000  -0.000307   0.000000   0.000000   0.000000
     49       0.000000  -0.001387   0.000000   0.000000   0.002403   0.000000
     50       0.002724   0.000000   0.000000   0.000000   0.000000  -0.000307
     51       0.000000   0.000002   0.000000   0.000000  -0.000004   0.000000
     52       0.000000   0.000000  -0.000001   0.000000   0.000000   0.000000
     53       0.000000   0.000000   0.000000   0.000000   0.000000   0.000000
     54       0.000000  -0.000004   0.000000   0.000000   0.000007   0.000000
     55       0.000307   0.000000   0.000000   0.000000   0.000000  -0.000001
     56       0.066441   0.018459   0.000000   0.019404  -0.005081   0.000000
     57       0.154260   0.048055   0.000000   0.050517  -0.013228   0.000000
     58       0.000015  -0.000000  -0.000000   0.000000   0.000000  -0.000000
     59       0.001862  -0.000173  -0.000539   0.000142   0.000497  -0.000282
     60      -0.066441   0.018459   0.000000  -0.019404  -0.005081  -0.000000
     61      -0.154260   0.048055   0.000000  -0.050517  -0.013228  -0.000000
     62      -0.000015  -0.000000  -0.000000  -0.000000   0.000000   0.000000
     63      -0.001862  -0.000173  -0.000539  -0.000142   0.000497   0.000282
                 42         43         44         45         46         47    
      0       0.000000   0.000000   0.000000   0.000000   0.000000   0.000001
      1       0.000000   0.000000   0.000000   0.000000   0.000000   0.000156
      2       0.000000  -0.000000  -0.000000  -0.000000   0.000000  -0.000113
      3       0.000000  -0.000000  -0.000000  -0.000000   0.000000  -0.000334
      4       0.000000   0.000000   0.000000   0.000000   0.000000   0.000000
      5       0.000038   0.000552   0.000250   0.000737   0.000000   0.006058
      6      -0.000068  -0.000869  -0.000127  -0.001173   0.000000  -0.006874
      7      -0.000200  -0.002562  -0.001173  -0.003184   0.000000  -0.020259
      8       0.000000   0.000000   0.000000   0.000000   0.000271   0.000000
      9       0.000000  -0.000000  -0.000000  -0.000000   0.000000  -0.000085
     10       0.000000   0.000000   0.000000   0.000000   0.000000   0.000129
     11       0.000000   0.000000   0.000000   0.000000  -0.000000   0.000000
     12       0.000000   0.000000   0.000000   0.000000   0.000000   0.000191
     13       0.000000   0.000000   0.000000   0.000000  -0.000000   0.000000
     14       0.000004   0.009684   0.022743   0.000000   0.000000   0.070318
     15       0.023499   0.184802   0.214595  -0.000000   0.000000   0.387667
     16      -0.048011  -0.289653  -0.286863   0.000000   0.000000  -0.342677
     17      -0.000000  -0.000000  -0.000000   0.097569   0.000000  -0.000000
     18       0.000000   0.000000   0.000000   0.000000   0.097569   0.000000
     19       0.052028   0.297304   0.148229   0.000000   0.000000   0.568889
     20      -0.094012  -0.465679  -0.076389   0.000000   0.000000  -0.645499
     21      -0.000000   0.000000   0.000000   0.160798   0.000000   0.000000
     22       0.000000   0.000000   0.000000   0.000000   0.160798   0.000000
     23       0.067480   0.313272   0.303403  -0.000000   0.000000   0.173558
     24      -0.000000  -0.000000   0.000000  -0.190932   0.000000   0.000000
     25       0.000000   0.000000   0.000000   0.000000  -0.190932   0.000000
     26       0.000000   0.000000   0.000000  -0.000000   0.000000   0.000000
     27       0.000000   0.000000   0.000000   0.000000  -0.000000   0.000000
     28       0.000000   0.000000   0.000000   0.000000   0.000000   0.000002
     29       0.000000   0.000000   0.000000   0.000000   0.000000   0.000073
     30       0.000000   0.000000   0.000000   0.000000   0.000000   0.000000
     31       0.000000  -0.000000   0.000000  -0.000000   0.000000  -0.000137
     32       0.000000   0.000000   0.000000   0.000000   0.000000   0.000000
     33       0.000002   0.000073   0.000000   0.000137   0.000000   0.002724
     34      -0.000000  -0.000000   0.000040   0.000000   0.000000   0.000000
     35      -0.000012  -0.000395  -0.000000  -0.000708   0.000000  -0.009361
     36       0.000000   0.000000   0.000000   0.000000   0.000040   0.000000
     37       0.000000  -0.000000   0.000000  -0.000000   0.000000  -0.000304
     38       0.000000   0.000000  -0.000000   0.000000   0.000000   0.000000
     39       0.000000   0.000000   0.000000   0.000000   0.000000   0.000000
     40       0.000000   0.000000   0.000000   0.000000   0.000000   0.000527
     41       0.000000   0.000000   0.000000   0.000000  -0.000000   0.000000
     42       1.000000   0.233690  -0.000000  -0.000000   0.000000   0.167280
     43       0.233690   1.000000   0.000000  -0.000000   0.000000   0.763641
     44      -0.000000   0.000000   1.000000   0.000000   0.000000   0.000000
     45      -0.000000  -0.000000   0.000000   1.000000   0.000000   0.000000
     46       0.000000   0.000000   0.000000   0.000000   1.000000   0.000000
     47       0.167280   0.763641   0.000000   0.000000   0.000000   1.000000
     48      -0.000000  -0.000000   0.501521   0.000000   0.000000   0.000000
     49      -0.000000  -0.000000   0.000000   0.501521   0.000000   0.000000
     50       0.000000   0.000000   0.000000   0.000000   0.501521   0.000000
     51       0.000000   0.000000   0.000000   0.000000   0.000000   0.000000
     52       0.000000   0.000000  -0.000000   0.000000   0.000000   0.000000
     53       0.000000   0.000000   0.000000   0.000000   0.000000   0.000000
     54       0.000000   0.000000   0.000000  -0.000000   0.000000   0.000000
     55       0.000000   0.000000   0.000000   0.000000  -0.000000   0.000000
     56       0.000000   0.000000   0.000000   0.000000   0.000000   0.000012
     57       0.000012   0.000198   0.000127   0.000252   0.000067   0.002742
     58       0.000054   0.003344   0.005808  -0.000000   0.003041   0.051076
     59       0.012265   0.084286   0.058647  -0.000000   0.030713   0.227108
     60       0.000000   0.000000   0.000000   0.000000  -0.000000   0.000012
     61       0.000012   0.000198   0.000127   0.000252  -0.000067   0.002742
     62       0.000054   0.003344   0.005808  -0.000000  -0.003041   0.051076
     63       0.012265   0.084286   0.058647  -0.000000  -0.030713   0.227108
                 48         49         50         51         52         53    
      0       0.000002   0.000007   0.000000   0.000000   0.000000   0.000000
      1       0.000243   0.000715   0.000000  -0.000001   0.000001   0.000000
      2      -0.000080  -0.000523   0.000000   0.000001  -0.000001   0.000000
      3      -0.000523  -0.001444   0.000000   0.000003  -0.000004   0.000000
      4       0.000000   0.000000   0.000097   0.000000   0.000000   0.000000
      5       0.005434   0.016014   0.000000  -0.000696   0.001063   0.000000
      6      -0.000271  -0.018171   0.000000   0.001512  -0.000466   0.000000
      7      -0.018171  -0.047655   0.000000   0.002459  -0.004380   0.000000
      8       0.000000   0.000000   0.005895   0.000000   0.000000   0.000391
      9      -0.000191  -0.000372   0.000000   0.000000  -0.000000   0.000000
     10       0.000115   0.000628   0.000000  -0.000000   0.000000   0.000000
     11       0.000000   0.000000  -0.000038   0.000000   0.000000  -0.000000
     12       0.000333   0.000869   0.000000  -0.000000   0.000001   0.000000
     13       0.000000   0.000000  -0.000111   0.000000   0.000000  -0.000000
     14       0.154830   0.000000   0.000000   0.106170  -0.000000   0.000000
     15       0.586874  -0.000000   0.000000   0.283388   0.000000   0.000000
     16      -0.260818   0.000000   0.000000  -0.259027   0.000000   0.000000
     17      -0.000000   0.293847   0.000000  -0.000000   0.269953   0.000000
     18       0.000000   0.000000   0.293847   0.000000   0.000000   0.269953
     19       0.510252   0.000000   0.000000   0.092429   0.000000   0.000000
     20      -0.025447   0.000000   0.000000   0.059804  -0.000000   0.000000
     21       0.000000   0.553519   0.000000  -0.000000   0.173667   0.000000
     22       0.000000   0.000000   0.553519   0.000000   0.000000   0.173667
     23       0.004997   0.000000   0.000000   0.138629   0.000000   0.000000
     24       0.000000  -0.257776   0.000000   0.000000  -0.404001   0.000000
     25       0.000000   0.000000  -0.257776   0.000000   0.000000  -0.404001
     26       0.000000   0.000000   0.000000   0.000000   0.000000   0.000000
     27       0.000000   0.000000   0.000000   0.000000   0.000000   0.000000
     28      -0.000000   0.000012   0.000000   0.000000   0.000000   0.000000
     29      -0.000000   0.000395   0.000000  -0.000000   0.000000   0.000000
     30       0.000040   0.000000   0.000000   0.000000   0.000000   0.000000
     31      -0.000000  -0.000708   0.000000   0.000000   0.000000   0.000000
     32       0.000000   0.000000   0.000040   0.000000   0.000000   0.000000
     33       0.000000   0.009361   0.000000  -0.000304   0.000000   0.000000
     34       0.002724   0.000000   0.000000   0.000000   0.000307   0.000000
     35       0.000000  -0.029447   0.000000   0.001387   0.000000   0.000000
     36       0.000000   0.000000   0.002724   0.000000   0.000000   0.000000
     37       0.000000  -0.001387   0.000000   0.000002   0.000000   0.000000
     38      -0.000307   0.000000   0.000000   0.000000  -0.000001   0.000000
     39       0.000000   0.000000   0.000000   0.000000   0.000000   0.000000
     40       0.000000   0.002403   0.000000  -0.000004   0.000000   0.000000
     41       0.000000   0.000000  -0.000307   0.000000   0.000000   0.000000
     42      -0.000000  -0.000000   0.000000   0.000000   0.000000   0.000000
     43      -0.000000  -0.000000   0.000000   0.000000   0.000000   0.000000
     44       0.501521   0.000000   0.000000   0.000000  -0.000000   0.000000
     45       0.000000   0.501521   0.000000   0.000000   0.000000   0.000000
     46       0.000000   0.000000   0.501521   0.000000   0.000000   0.000000
     47       0.000000   0.000000   0.000000   0.000000   0.000000   0.000000
     48       1.000000   0.000000   0.000000   0.000000   0.000000   0.000000
     49       0.000000   1.000000   0.000000   0.000000   0.000000   0.000000
     50       0.000000   0.000000   1.000000   0.000000   0.000000   0.000000
     51       0.000000   0.000000   0.000000   1.000000   0.000000   0.000000
     52       0.000000   0.000000   0.000000   0.000000   1.000000   0.000000
     53       0.000000   0.000000   0.000000   0.000000   0.000000   1.000000
     54       0.000000   0.000000   0.000000  -0.000000   0.000000   0.000000
     55       0.000000   0.000000   0.000000   0.000000   0.000000   0.000000
     56       0.000029   0.000058   0.000015  -0.000000   0.000000   0.000000
     57       0.003556   0.007047   0.001862  -0.000173   0.000539   0.000142
     58       0.126870  -0.000000   0.066441   0.018459  -0.000000   0.019404
     59       0.294561  -0.000000   0.154260   0.048055  -0.000000   0.050517
     60       0.000029   0.000058  -0.000015  -0.000000   0.000000  -0.000000
     61       0.003556   0.007047  -0.001862  -0.000173   0.000539  -0.000142
     62       0.126870  -0.000000  -0.066441   0.018459  -0.000000  -0.019404
     63       0.294561  -0.000000  -0.154260   0.048055  -0.000000  -0.050517
                 54         55         56         57         58         59    
      0       0.000000   0.000000   0.032609   0.092101   0.000000   0.000102
      1       0.000002   0.000000   0.273116   0.475730   0.000001   0.002185
      2      -0.000002   0.000000   0.195552   0.140914   0.000000   0.000563
      3      -0.000006   0.000000  -0.000000   0.000000  -0.000002  -0.003408
      4       0.000000   0.000000   0.312657   0.225299   0.000001   0.000901
      5       0.001567   0.000000   0.376677   0.704119   0.001018   0.019103
      6      -0.002386   0.000000   0.273060   0.309037   0.000729   0.008384
      7      -0.005878   0.000000  -0.000000  -0.000000  -0.004409  -0.050728
      8       0.000000   0.001154   0.436581   0.494102   0.001165   0.013405
      9      -0.000000   0.000000  -0.026438  -0.006313  -0.000000  -0.001189
     10       0.000001   0.000000   0.000000   0.000000  -0.000000  -0.000670
     11       0.000000  -0.000000   0.263218   0.062853   0.000000   0.000177
     12       0.000001   0.000000  -0.210422  -0.050246   0.000000   0.001886
     13       0.000000  -0.000000   0.000000   0.000000  -0.000000  -0.001072
     14       0.000000   0.000000   0.000000   0.000102   0.032609   0.092101
     15       0.000000   0.000000   0.000001   0.002185   0.273116   0.475730
     16       0.000000   0.000000   0.000000   0.000563   0.195552   0.140914
     17      -0.000000   0.000000   0.000002   0.003408   0.000000  -0.000000
     18       0.000000  -0.000000   0.000001   0.000901   0.312657   0.225299
     19       0.000000   0.000000   0.001018   0.019103   0.376677   0.704119
     20       0.000000   0.000000   0.000729   0.008384   0.273060   0.309037
     21       0.000000   0.000000   0.004409   0.050728   0.000000   0.000000
     22       0.000000   0.000000   0.001165   0.013405   0.436581   0.494102
     23       0.000000   0.000000  -0.000000  -0.001189  -0.026438  -0.006313
     24       0.000000   0.000000   0.000000   0.000670  -0.000000  -0.000000
     25       0.000000   0.000000   0.000000   0.000177   0.263218   0.062853
     26       0.133359   0.000000   0.000000   0.001886  -0.210422  -0.050246
     27       0.000000   0.133359   0.000000   0.001072  -0.000000  -0.000000
     28       0.000000   0.000000   0.000054   0.012265   0.000000   0.000012
     29       0.000000   0.000000   0.003344   0.084286   0.000000   0.000198
     30       0.000000   0.000000   0.005808   0.058647   0.000000   0.000127
     31      -0.000000   0.000000   0.000000   0.000000  -0.000000  -0.000252
     32       0.000000   0.000000   0.003041   0.030713   0.000000   0.000067
     33       0.000527   0.000000   0.051076   0.227108   0.000012   0.002742
     34       0.000000   0.000000   0.126870   0.294561   0.000029   0.003556
     35      -0.002403   0.000000   0.000000   0.000000  -0.000058  -0.007047
     36       0.000000   0.000307   0.066441   0.154260   0.000015   0.001862
     37      -0.000004   0.000000   0.018459   0.048055  -0.000000  -0.000173
     38       0.000000   0.000000   0.000000   0.000000  -0.000000  -0.000539
     39       0.000000   0.000000   0.019404   0.050517   0.000000   0.000142
     40       0.000007   0.000000  -0.005081  -0.013228   0.000000   0.000497
     41       0.000000  -0.000001   0.000000   0.000000  -0.000000  -0.000282
     42       0.000000   0.000000   0.000000   0.000012   0.000054   0.012265
     43       0.000000   0.000000   0.000000   0.000198   0.003344   0.084286
     44       0.000000   0.000000   0.000000   0.000127   0.005808   0.058647
     45      -0.000000   0.000000   0.000000   0.000252  -0.000000  -0.000000
     46       0.000000  -0.000000   0.000000   0.000067   0.003041   0.030713
     47       0.000000   0.000000   0.000012   0.002742   0.051076   0.227108
     48       0.000000   0.000000   0.000029   0.003556   0.126870   0.294561
     49       0.000000   0.000000   0.000058   0.007047  -0.000000  -0.000000
     50       0.000000   0.000000   0.000015   0.001862   0.066441   0.154260
     51      -0.000000   0.000000  -0.000000  -0.000173   0.018459   0.048055
     52       0.000000   0.000000   0.000000   0.000539  -0.000000  -0.000000
     53       0.000000   0.000000   0.000000   0.000142   0.019404   0.050517
     54       1.000000   0.000000   0.000000   0.000497  -0.005081  -0.013228
     55       0.000000   1.000000   0.000000   0.000282  -0.000000  -0.000000
     56       0.000000   0.000000   1.000000   0.658292   0.000001   0.002178
     57       0.000497   0.000282   0.658292   1.000000   0.002178   0.029376
     58      -0.005081  -0.000000   0.000001   0.002178   1.000000   0.658292
     59      -0.013228  -0.000000   0.002178   0.029376   0.658292   1.000000
     60       0.000000  -0.000000   0.013709   0.132497   0.000000   0.000446
     61       0.000497  -0.000282   0.132497   0.373307   0.000446   0.010966
     62      -0.005081   0.000000   0.000000   0.000446   0.013709   0.132497
     63      -0.013228   0.000000   0.000446   0.010966   0.132497   0.373307
                  60         61         62         63    
      0       0.032609   0.092101   0.000000   0.000102
      1       0.273116   0.475730   0.000001   0.002185
      2       0.195552   0.140914   0.000000   0.000563
      3      -0.000000   0.000000  -0.000002  -0.003408
      4      -0.312657  -0.225299  -0.000001  -0.000901
      5       0.376677   0.704119   0.001018   0.019103
      6       0.273060   0.309037   0.000729   0.008384
      7      -0.000000  -0.000000  -0.004409  -0.050728
      8      -0.436581  -0.494102  -0.001165  -0.013405
      9      -0.026438  -0.006313  -0.000000  -0.001189
     10       0.000000   0.000000  -0.000000  -0.000670
     11      -0.263218  -0.062853  -0.000000  -0.000177
     12      -0.210422  -0.050246   0.000000   0.001886
     13      -0.000000  -0.000000   0.000000   0.001072
     14       0.000000   0.000102   0.032609   0.092101
     15       0.000001   0.002185   0.273116   0.475730
     16       0.000000   0.000563   0.195552   0.140914
     17       0.000002   0.003408   0.000000  -0.000000
     18      -0.000001  -0.000901  -0.312657  -0.225299
     19       0.001018   0.019103   0.376677   0.704119
     20       0.000729   0.008384   0.273060   0.309037
     21       0.004409   0.050728   0.000000   0.000000
     22      -0.001165  -0.013405  -0.436581  -0.494102
     23      -0.000000  -0.001189  -0.026438  -0.006313
     24       0.000000   0.000670  -0.000000  -0.000000
     25      -0.000000  -0.000177  -0.263218  -0.062853
     26       0.000000   0.001886  -0.210422  -0.050246
     27      -0.000000  -0.001072   0.000000   0.000000
     28       0.000054   0.012265   0.000000   0.000012
     29       0.003344   0.084286   0.000000   0.000198
     30       0.005808   0.058647   0.000000   0.000127
     31       0.000000   0.000000  -0.000000  -0.000252
     32      -0.003041  -0.030713  -0.000000  -0.000067
     33       0.051076   0.227108   0.000012   0.002742
     34       0.126870   0.294561   0.000029   0.003556
     35       0.000000   0.000000  -0.000058  -0.007047
     36      -0.066441  -0.154260  -0.000015  -0.001862
     37       0.018459   0.048055  -0.000000  -0.000173
     38       0.000000   0.000000  -0.000000  -0.000539
     39      -0.019404  -0.050517  -0.000000  -0.000142
     40      -0.005081  -0.013228   0.000000   0.000497
     41      -0.000000  -0.000000   0.000000   0.000282
     42       0.000000   0.000012   0.000054   0.012265
     43       0.000000   0.000198   0.003344   0.084286
     44       0.000000   0.000127   0.005808   0.058647
     45       0.000000   0.000252  -0.000000  -0.000000
     46      -0.000000  -0.000067  -0.003041  -0.030713
     47       0.000012   0.002742   0.051076   0.227108
     48       0.000029   0.003556   0.126870   0.294561
     49       0.000058   0.007047  -0.000000  -0.000000
     50      -0.000015  -0.001862  -0.066441  -0.154260
     51      -0.000000  -0.000173   0.018459   0.048055
     52       0.000000   0.000539  -0.000000  -0.000000
     53      -0.000000  -0.000142  -0.019404  -0.050517
     54       0.000000   0.000497  -0.005081  -0.013228
     55      -0.000000  -0.000282   0.000000   0.000000
     56       0.013709   0.132497   0.000000   0.000446
     57       0.132497   0.373307   0.000446   0.010966
     58       0.000000   0.000446   0.013709   0.132497
     59       0.000446   0.010966   0.132497   0.373307
     60       1.000000   0.658292   0.000001   0.002178
     61       0.658292   1.000000   0.002178   0.029376
     62       0.000001   0.002178   1.000000   0.658292
     63       0.002178   0.029376   0.658292   1.000000
-------------------
DFT GRID GENERATION
-------------------

General Integration Accuracy     IntAcc      ...  4.340
Radial Grid Type                 RadialGrid  ... Gauss-Chebyshev
Angular Grid (max. acc.)         AngularGrid ... Lebedev-110
Angular grid pruning method      GridPruning ... 3 (G Style)
Weight generation scheme         WeightScheme... Becke
Basis function cutoff            BFCut       ...    1.0000e-10
Integration weight cutoff        WCut        ...    1.0000e-14
Grids for H and He will be reduced by one unit

# of grid points (after initial pruning)     ...   9920 (   0.0 sec)
# of grid points (after weights+screening)   ...   9600 (   0.0 sec)
nearest neighbour list constructed           ...    0.0 sec
Grid point re-assignment to atoms done       ...    0.0 sec
Grid point division into batches done        ...    0.0 sec
Reduced shell lists constructed in    0.1 sec

Total number of grid points                  ...     9600
Total number of batches                      ...      152
Average number of points per batch           ...       63
Average number of grid points per atom       ...     1200
Average number of shells per batch           ...    22.67 (70.85%)
Average number of basis functions per batch  ...    45.37 (70.88%)
Average number of large shells per batch     ...    18.55 (81.81%)
Average number of large basis fcns per batch ...    36.93 (81.40%)
Maximum spatial batch extension              ...  20.26, 18.31, 23.39 au
Average spatial batch extension              ...   4.97,  4.20,  4.66 au

Time for grid setup =    0.147 sec

------------------------------
INITIAL GUESS: MODEL POTENTIAL
------------------------------
Loading Hartree-Fock densities                     ... done
Calculating cut-offs                               ... done
Setting up the integral package                    ... done
Initializing the effective Hamiltonian             ... done
Starting the Coulomb interaction                   ... done (   0.0 sec)
Reading the grid                                   ... done
Mapping shells                                     ... done
Starting the XC term evaluation                    ... done (   0.7 sec)
  promolecular density results
     # of electrons  =     31.996886583
     EX              =    -27.631321408
     EC              =     -1.025310036
     EX+EC           =    -28.656631444
Transforming the Hamiltonian                       ... done (   0.0 sec)
Diagonalizing the Hamiltonian                      ... done (   0.0 sec)
Back transforming the eigenvectors                 ... done (   0.0 sec)
Now organizing SCF variables                       ... done
                      ------------------
                      INITIAL GUESS DONE (   0.8 sec)
                      ------------------
--------------
SCF ITERATIONS
--------------
ITER       Energy         Delta-E        Max-DP      RMS-DP      [F,P]     Damp
               ***  Starting incremental Fock matrix formation  ***
  0   -228.5801604941   0.000000000000 0.10158206  0.00616791  0.2631521 0.7000
  1   -228.6582770842  -0.078116590115 0.05331307  0.00354288  0.0730223 0.7000
                               ***Turning on DIIS***
  2   -228.6730669617  -0.014789877478 0.05574783  0.00385940  0.0351848 0.0000
  3   -228.7201166502  -0.047049688474 0.04006540  0.00273877  0.0303242 0.0000
  4   -228.7221911414  -0.002074491264 0.01148602  0.00064970  0.0325208 0.0000
  5   -228.7239755213  -0.001784379842 0.00313907  0.00020333  0.0111791 0.0000
  6   -228.7241546015  -0.000179080198 0.00139986  0.00007636  0.0037985 0.0000
                      *** Initiating the SOSCF procedure ***
                           *** Shutting down DIIS ***
                      *** Re-Reading the Fockian *** 
                      *** Removing any level shift *** 
ITER      Energy       Delta-E        Grad      Rot      Max-DP    RMS-DP
  7   -228.72417533  -0.0000207242  0.000251  0.000251  0.000451  0.000028
               *** Restarting incremental Fock matrix formation ***
  8   -228.72417735  -0.0000020275  0.000206  0.000722  0.000765  0.000042
  9   -228.72417605   0.0000013050  0.000510  0.000446  0.000521  0.000026
 10   -228.72417759  -0.0000015466  0.000038  0.000063  0.000144  0.000009
 11   -228.72417759   0.0000000073  0.000039  0.000034  0.000075  0.000005
                 **** Energy Check signals convergence ****
              ***Rediagonalizing the Fockian in SOSCF/NRSCF***

               *****************************************************
               *                     SUCCESS                       *
               *           SCF CONVERGED AFTER  12 CYCLES          *
               *****************************************************

Setting up the final grid:

General Integration Accuracy     IntAcc      ...  4.670
Radial Grid Type                 RadialGrid  ... Gauss-Chebyshev
Angular Grid (max. acc.)         AngularGrid ... Lebedev-302
Angular grid pruning method      GridPruning ... 3 (G Style)
Weight generation scheme         WeightScheme... Becke
Basis function cutoff            BFCut       ...    1.0000e-10
Integration weight cutoff        WCut        ...    1.0000e-14
Grids for H and He will be reduced by one unit

# of grid points (after initial pruning)     ...  38424 (   0.0 sec)
# of grid points (after weights+screening)   ...  37038 (   0.1 sec)
nearest neighbour list constructed           ...    0.0 sec
Grid point re-assignment to atoms done       ...    0.0 sec
Grid point division into batches done        ...    0.2 sec
Reduced shell lists constructed in    0.5 sec

Total number of grid points                  ...    37038
Total number of batches                      ...      584
Average number of points per batch           ...       63
Average number of grid points per atom       ...     4630
Average number of shells per batch           ...    20.39 (63.73%)
Average number of basis functions per batch  ...    40.67 (63.55%)
Average number of large shells per batch     ...    16.44 (80.63%)
Average number of large basis fcns per batch ...    32.79 (80.63%)
Maximum spatial batch extension              ...  19.12, 16.88, 17.46 au
Average spatial batch extension              ...   3.03,  2.82,  2.93 au

Final grid set up in    0.7 sec
Final integration                            ... done (   0.4 sec)
Change in XC energy                          ...    -0.000143811
Integrated number of electrons               ...    32.000000322
Previous integrated no of electrons          ...    31.999142134

----------------
TOTAL SCF ENERGY
----------------

Total Energy       :         -228.72432142 Eh           -6223.90520 eV

Components:
Nuclear Repulsion  :          100.58565736 Eh            2737.07489 eV
Electronic Energy  :         -329.30997878 Eh           -8960.98009 eV

One Electron Energy:         -510.83586120 Eh          -13900.55047 eV
Two Electron Energy:          181.52588242 Eh            4939.57038 eV

Virial components:
Potential Energy   :         -456.43647578 Eh          -12420.26794 eV
Kinetic Energy     :          227.71215436 Eh            6196.36274 eV
Virial Ratio       :            2.00444494


DFT components:
N(Alpha)           :       16.000000160884 electrons
N(Beta)            :       16.000000160884 electrons
N(Total)           :       32.000000321767 electrons
E(X)               :      -28.161413908062 Eh       
E(C)               :       -1.041491989494 Eh       
E(XC)              :      -29.202905897556 Eh       

---------------
SCF CONVERGENCE
---------------

  Last Energy change         ...   -2.3521e-08  Tolerance :   1.0000e-06
  Last MAX-Density change    ...    5.2530e-06  Tolerance :   1.0000e-05
  Last RMS-Density change    ...    3.4965e-07  Tolerance :   1.0000e-06
  Last Orbital Gradient      ...    2.2891e-06  Tolerance :   5.0000e-05
  Last Orbital Rotation      ...    3.3525e-06  Tolerance :   5.0000e-05

             **** THE GBW FILE WAS UPDATED (orca.gbw) ****
             **** DENSITY FILE WAS UPDATED (orca.scfp.tmp) ****
             **** ENERGY FILE WAS UPDATED (orca.en.tmp) ****
----------------
ORBITAL ENERGIES
----------------

  NO   OCC          E(Eh)            E(eV) 
   0   2.0000     -18.783142      -511.1153 
   1   2.0000     -18.783136      -511.1151 
   2   2.0000      -9.977950      -271.5138 
   3   2.0000      -9.977922      -271.5130 
   4   2.0000      -0.979121       -26.6432 
   5   2.0000      -0.978188       -26.6178 
   6   2.0000      -0.576750       -15.6942 
   7   2.0000      -0.573303       -15.6004 
   8   2.0000      -0.446188       -12.1414 
   9   2.0000      -0.443783       -12.0760 
  10   2.0000      -0.390875       -10.6362 
  11   2.0000      -0.389564       -10.6006 
  12   2.0000      -0.370568       -10.0837 
  13   2.0000      -0.356606        -9.7037 
  14   2.0000      -0.215240        -5.8570 
  15   2.0000      -0.213224        -5.8021 
  16   0.0000      -0.085914        -2.3378 
  17   0.0000      -0.063761        -1.7350 
  18   0.0000       0.074177         2.0185 
  19   0.0000       0.093855         2.5539 
  20   0.0000       0.153329         4.1723 
  21   0.0000       0.172354         4.6900 
  22   0.0000       0.173256         4.7145 
  23   0.0000       0.219749         5.9797 
  24   0.0000       0.398043        10.8313 
  25   0.0000       0.521420        14.1886 
  26   0.0000       0.566045        15.4029 
  27   0.0000       0.568551        15.4710 
  28   0.0000       0.622598        16.9418 
  29   0.0000       0.640268        17.4226 
  30   0.0000       0.650931        17.7127 
  31   0.0000       0.742801        20.2127 
  32   0.0000       0.767768        20.8920 
  33   0.0000       0.794557        21.6210 
  34   0.0000       0.803426        21.8623 
  35   0.0000       0.831550        22.6276 
  36   0.0000       0.855141        23.2696 
  37   0.0000       0.875389        23.8206 
  38   0.0000       0.913132        24.8476 
  39   0.0000       0.954608        25.9762 
  40   0.0000       1.005279        27.3550 
  41   0.0000       1.023226        27.8434 
  42   0.0000       1.430018        38.9128 
  43   0.0000       1.430051        38.9137 
  44   0.0000       1.444246        39.2999 
  45   0.0000       1.447920        39.3999 
  46   0.0000       1.463800        39.8320 
  47   0.0000       1.518279        41.3145 
  48   0.0000       1.615319        43.9551 
  49   0.0000       1.620043        44.0836 
  50   0.0000       1.791619        48.7524 
  51   0.0000       1.820122        49.5280 
  52   0.0000       1.862946        50.6933 
  53   0.0000       1.862973        50.6941 
  54   0.0000       2.068818        56.2954 
  55   0.0000       2.090263        56.8789 
  56   0.0000       2.238287        60.9069 
  57   0.0000       2.256999        61.4161 
  58   0.0000       2.463543        67.0364 
  59   0.0000       2.500331        68.0375 
  60   0.0000       2.595721        70.6332 
  61   0.0000       2.599391        70.7330 
  62   0.0000       2.851115        77.5828 
  63   0.0000       2.868803        78.0641 
------------------
MOLECULAR ORBITALS
------------------
[...]
    XC-Potential eval.      ....       0.268 sec  ( 15.1% of XC)
Diagonalization             ....       0.017 sec  (  0.2%)
Density matrix formation    ....       0.001 sec  (  0.0%)
Population analysis         ....       0.003 sec  (  0.0%)
Initial guess               ....       0.800 sec  (  8.1%)
Orbital Transformation      ....       0.000 sec  (  0.0%)
Orbital Orthonormalization  ....       0.000 sec  (  0.0%)
DIIS solution               ....       0.004 sec  (  0.0%)
SOSCF solution              ....       0.008 sec  (  0.1%)
Grid generation             ....       0.822 sec  (  8.3%)
------------------------------------------------------------------------------
                        ORCA TD-DFT/TDA CALCULATION
------------------------------------------------------------------------------

Input orbitals are from        ... orca.gbw
CI-vector output               ... orca.cis
Tamm-Dancoff approximation     ... operative
CIS-Integral strategy          ... AO-integrals
Integral handling              ... AO integral Direct
Max. core memory used          ... 4000 MB
Reference state                ... RHF
Generation of triplets         ... off
Number of operators            ... 1
Orbital ranges used for CIS calculation:
 Operator 0:  Orbitals   4... 15  to  16... 63
XAS localization array:
 Operator 0:  Orbitals  -1... -1
-------------------
XC-INTEGRATION GRID
-------------------

General Integration Accuracy     IntAcc      ...  3.670
Radial Grid Type                 RadialGrid  ... Gauss-Chebyshev
Angular Grid (max. acc.)         AngularGrid ... Lebedev-50
Angular grid pruning method      GridPruning ... 3 (G Style)
Weight generation scheme         WeightScheme... Becke
Basis function cutoff            BFCut       ...    1.0000e-10
Integration weight cutoff        WCut        ...    1.0000e-14
Grids for H and He will be reduced by one unit

# of grid points (after initial pruning)     ...   4616 (   0.0 sec)
# of grid points (after weights+screening)   ...   4474 (   0.0 sec)
nearest neighbour list constructed           ...    0.0 sec
Grid point re-assignment to atoms done       ...    0.0 sec
Grid point division into batches done        ...    0.0 sec
Reduced shell lists constructed in    0.0 sec

Total number of grid points                  ...     4474
Total number of batches                      ...       74
Average number of points per batch           ...       60
Average number of grid points per atom       ...      559
Average number of shells per batch           ...    24.20 (75.63%)
Average number of basis functions per batch  ...    49.05 (76.65%)
Average number of large shells per batch     ...    20.03 (82.75%)
Average number of large basis fcns per batch ...    39.57 (80.67%)
Maximum spatial batch extension              ...  18.60, 18.51, 18.27 au
Average spatial batch extension              ...   6.30,  5.07,  5.21 au


---------------
TD-DFT XC SETUP
---------------

DFT calculation                         ... on
Name of the grid file                   ... orca.grid_cis.tmp
RI-approximation                        ... on
Aux-basis dimension                     ... 168
Exchange functional (SCF)               ... PBE
Exchange functional (TD-DFT)            ... PBE
   PBE kappa parameter  XKappa (SCF)    ...  0.804000
   PBE kappa parameter  XKappa (TD-DFT) ...  0.804000
Correlation functional (SCF)            ... PBE
Correlation functional (TD-DFT)         ... PBE
 LDA part of GGA corr.  LDAOpt (SCF)    ... PW91-LDA
 LDA part of GGA corr.  LDAOpt (TD-DFT) ... PW91-LDA

Building densities             ... done
Calculating rho(r) on the grid ... done
Building xc-kernel on the grid ... done
                    *** TD-DFT CALCULATION INITIALIZED ***


------------------------
DAVIDSON-DIAGONALIZATION
------------------------

Dimension of the eigenvalue problem            ...    576
Number of roots to be determined               ...     10
Maximum size of the expansion space            ...     20
Convergence tolerance for the residual         ...    1.000e-06
Convergence tolerance for the energies         ...    1.000e-06
Orthogonality tolerance                        ...    1.000e-14
Level Shift                                    ...    0.000e+00
Constructing the preconditioner                ... o.k.
Building the initial guess                     ... o.k.
Number of trial vectors determined             ...     15


                       ****Iteration    0****

   Memory handling for direct AO based CIS:
   Memory per vector needed      ...     1 MB
   Memory needed                 ...     1 MB
   Memory available              ...  4000 MB
   Number of vectors per batch   ...  4000
   Number of batches             ...     1
   Time for densities:     0.003
   Time for RI-J (Direct):     0.611
   Time for XC-Integration:     0.393
   Time for Sigma-Completion:     0.009
   Size of expansion space: 15
   Lowest Energy          :     0.131844049226
   Maximum Energy change  :     0.319622071077 (vector 9)
   Maximum residual norm  :     0.004786644363
   Rebuilding the expansion space

                       ****Iteration    1****
   Time for densities:     0.004
   Time for RI-J (Direct):     0.641
   Time for XC-Integration:     0.528
   Time for Sigma-Completion:     0.012
   Size of expansion space: 20
   Lowest Energy          :     0.131742792324
   Maximum Energy change  :     0.007639293043 (vector 9)
   Maximum residual norm  :     0.000225556920
   Rebuilding the expansion space

                       ****Iteration    2****
   Time for densities:     0.004
   Time for RI-J (Direct):     0.634
   Time for XC-Integration:     0.528
   Time for Sigma-Completion:     0.012
   Size of expansion space: 20
   Lowest Energy          :     0.131742703670
   Maximum Energy change  :     0.000472989871 (vector 4)
   Maximum residual norm  :     0.000148830558
   Rebuilding the expansion space

                       ****Iteration    3****
   Time for densities:     0.004
   Time for RI-J (Direct):     0.656
   Time for XC-Integration:     0.527
   Time for Sigma-Completion:     0.012
   Size of expansion space: 20
   Lowest Energy          :     0.131742702905
   Maximum Energy change  :     0.000115557272 (vector 4)
   Maximum residual norm  :     0.000066640231
   Rebuilding the expansion space

                       ****Iteration    4****
   Time for densities:     0.004
   Time for RI-J (Direct):     0.637
   Time for XC-Integration:     0.532
   Time for Sigma-Completion:     0.012
   Size of expansion space: 20
   Lowest Energy          :     0.131742702897
   Maximum Energy change  :     0.000027307789 (vector 8)
   Maximum residual norm  :     0.000033715797
   Rebuilding the expansion space

                       ****Iteration    5****
   Time for densities:     0.004
   Time for RI-J (Direct):     0.635
   Time for XC-Integration:     0.504
   Time for Sigma-Completion:     0.011
   Size of expansion space: 19
   Lowest Energy          :     0.131742702897
   Maximum Energy change  :     0.000027342956 (vector 8)
   Maximum residual norm  :     0.000042489146
   Rebuilding the expansion space

                       ****Iteration    6****
   Time for densities:     0.003
   Time for RI-J (Direct):     0.599
   Time for XC-Integration:     0.446
   Time for Sigma-Completion:     0.010
   Size of expansion space: 17
   Lowest Energy          :     0.131742702897
   Maximum Energy change  :     0.000006632841 (vector 8)
   Maximum residual norm  :     0.000031351084
   Rebuilding the expansion space

                       ****Iteration    7****
   Time for densities:     0.003
   Time for RI-J (Direct):     0.594
   Time for XC-Integration:     0.413
   Time for Sigma-Completion:     0.009
   Size of expansion space: 16
   Lowest Energy          :     0.131742702897
   Maximum Energy change  :     0.000005731640 (vector 8)
   Maximum residual norm  :     0.000026903963
   Rebuilding the expansion space

                       ****Iteration    8****
   Time for densities:     0.003
   Time for RI-J (Direct):     0.608
   Time for XC-Integration:     0.418
   Time for Sigma-Completion:     0.009
   Size of expansion space: 16
   Lowest Energy          :     0.131742702897
   Maximum Energy change  :     0.000004393625 (vector 8)
   Maximum residual norm  :     0.000019040513
   Rebuilding the expansion space

                       ****Iteration    9****
   Time for densities:     0.003
   Time for RI-J (Direct):     0.592
   Time for XC-Integration:     0.417
   Time for Sigma-Completion:     0.009
   Size of expansion space: 16
   Lowest Energy          :     0.131742702897
   Maximum Energy change  :     0.000003451748 (vector 8)
   Maximum residual norm  :     0.000017647177
   Rebuilding the expansion space

                       ****Iteration   10****
   Time for densities:     0.003
   Time for RI-J (Direct):     0.594
   Time for XC-Integration:     0.419
   Time for Sigma-Completion:     0.009
   Size of expansion space: 16
   Lowest Energy          :     0.131742702897
   Maximum Energy change  :     0.000002751387 (vector 8)
   Maximum residual norm  :     0.000012446417
   Rebuilding the expansion space

                       ****Iteration   11****
   Time for densities:     0.003
   Time for RI-J (Direct):     0.594
   Time for XC-Integration:     0.417
   Time for Sigma-Completion:     0.009
   Size of expansion space: 16
   Lowest Energy          :     0.131742702897
   Maximum Energy change  :     0.000002261532 (vector 8)
   Maximum residual norm  :     0.000012276089
   Rebuilding the expansion space

                       ****Iteration   12****
   Time for densities:     0.003
   Time for RI-J (Direct):     0.594
   Time for XC-Integration:     0.418
   Time for Sigma-Completion:     0.009
   Size of expansion space: 16
   Lowest Energy          :     0.131742702897
   Maximum Energy change  :     0.000001893436 (vector 8)
   Maximum residual norm  :     0.000008862937
   Rebuilding the expansion space

                       ****Iteration   13****
   Time for densities:     0.003
   Time for RI-J (Direct):     0.594
   Time for XC-Integration:     0.417
   Time for Sigma-Completion:     0.009
   Size of expansion space: 16
   Lowest Energy          :     0.131742702897
   Maximum Energy change  :     0.000001617182 (vector 8)
   Maximum residual norm  :     0.000009069527
   Rebuilding the expansion space

                       ****Iteration   14****
   Time for densities:     0.003
   Time for RI-J (Direct):     0.589
   Time for XC-Integration:     0.389
   Time for Sigma-Completion:     0.009
   Size of expansion space: 15
   Lowest Energy          :     0.131742702897
   Maximum Energy change  :     0.000001287285 (vector 8)
   Maximum residual norm  :     0.000006498183
   Rebuilding the expansion space

                       ****Iteration   15****
   Time for densities:     0.003
   Time for RI-J (Direct):     0.590
   Time for XC-Integration:     0.388
   Time for Sigma-Completion:     0.009
   Size of expansion space: 15
   Lowest Energy          :     0.131742702897
   Maximum Energy change  :     0.000001070177 (vector 8)
   Maximum residual norm  :     0.000006586789
   Rebuilding the expansion space

                       ****Iteration   16****
   Time for densities:     0.003
   Time for RI-J (Direct):     0.575
   Time for XC-Integration:     0.351
   Time for Sigma-Completion:     0.008
   Size of expansion space: 14
   Lowest Energy          :     0.131742702897
   Maximum Energy change  :     0.000000898112 (vector 8)

         *** CONVERGENCE OF ENERGIES REACHED ***

Storing the converged CI vectors               ... orca.cis1

                 *** DAVIDSON DONE ***

Total time for solving the CIS problem:    18.353sec

------------------------------------
TD-DFT/TDA EXCITED STATES (SINGLETS)
------------------------------------

the weight of the individual excitations are printed if larger than 0.01

STATE  1:  E=   0.131743 au      3.585 eV    28914.2 cm**-1
    14a ->  17a  :     0.044469 (c=  0.21087760)
    15a ->  16a  :     0.955465 (c=  0.97747869)

STATE  2:  E=   0.133557 au      3.634 eV    29312.4 cm**-1
    14a ->  16a  :     0.935647 (c= -0.96728843)
    15a ->  17a  :     0.064309 (c= -0.25359282)

STATE  3:  E=   0.156381 au      4.255 eV    34321.7 cm**-1
    14a ->  16a  :     0.064271 (c= -0.25351771)
    15a ->  17a  :     0.935609 (c=  0.96726889)

STATE  4:  E=   0.157871 au      4.296 eV    34648.6 cm**-1
    14a ->  17a  :     0.955450 (c=  0.97747128)
    15a ->  16a  :     0.044434 (c= -0.21079455)

STATE  5:  E=   0.287305 au      7.818 eV    63056.1 cm**-1
    12a ->  17a  :     0.369266 (c= -0.60767229)
    13a ->  16a  :     0.622979 (c=  0.78929007)

STATE  6:  E=   0.288509 au      7.851 eV    63320.5 cm**-1
    12a ->  16a  :     0.536641 (c=  0.73255800)
    13a ->  17a  :     0.461582 (c= -0.67939862)

STATE  7:  E=   0.291915 au      7.943 eV    64067.9 cm**-1
    14a ->  19a  :     0.073324 (c= -0.27078357)
    15a ->  18a  :     0.924766 (c=  0.96164774)

STATE  8:  E=   0.294404 au      8.011 eV    64614.2 cm**-1
    14a ->  18a  :     0.853631 (c=  0.92392151)
    15a ->  19a  :     0.144546 (c= -0.38019144)

STATE  9:  E=   0.310935 au      8.461 eV    68242.3 cm**-1
    10a ->  17a  :     0.172119 (c= -0.41487228)
    11a ->  16a  :     0.821358 (c= -0.90628812)

STATE 10:  E=   0.311887 au      8.487 eV    68451.4 cm**-1
    10a ->  16a  :     0.796404 (c=  0.89241483)
    11a ->  17a  :     0.198295 (c=  0.44530371)


-----------------------------
TD-DFT/TDA-EXCITATION SPECTRA
-----------------------------

Center of mass = (  0.0000,  0.0000, -0.0032)
Calculating the Dipole integrals                  ... done
Transforming integrals                            ... done
Calculating the Linear Momentum integrals         ... done
Transforming integrals                            ... done
Calculating angular momentum integrals            ... done
Transforming integrals                            ... done

-----------------------------------------------------------------------------
         ABSORPTION SPECTRUM VIA TRANSITION ELECTRIC DIPOLE MOMENTS
-----------------------------------------------------------------------------
State   Energy  Wavelength   fosc         T2         TX        TY        TZ  
        (cm-1)    (nm)                  (au**2)     (au)      (au)      (au) 
-----------------------------------------------------------------------------
   1   28914.2    345.9   0.000000000   0.00000   0.00000   0.00000  -0.00000
   2   29312.4    341.2   0.000006950   0.00008   0.00000  -0.00884  -0.00000
   3   34321.7    291.4   0.000038813   0.00037  -0.00000   0.01929   0.00000
   4   34648.6    288.6   0.000000000   0.00000   0.00000   0.00000   0.00000
   5   63056.1    158.6   0.011883011   0.06204   0.24908  -0.00005   0.00003
   6   63320.5    157.9   0.000544911   0.00283  -0.00000   0.00000  -0.05323
   7   64067.9    156.1   0.000000000   0.00000   0.00000  -0.00000   0.00000
   8   64614.2    154.8   0.046336447   0.23609  -0.00000  -0.48589   0.00000
   9   68242.3    146.5   0.000294564   0.00142  -0.03769   0.00035  -0.00018
  10   68451.4    146.1   0.000025207   0.00012   0.00001  -0.00189   0.01085

-----------------------------------------------------------------------------
         ABSORPTION SPECTRUM VIA TRANSITION VELOCITY DIPOLE MOMENTS
-----------------------------------------------------------------------------
State   Energy  Wavelength   fosc         P2         PX        PY        PZ  
        (cm-1)    (nm)                  (au**2)     (au)      (au)      (au) 
-----------------------------------------------------------------------------
   1   28914.2    345.9   0.000000000   0.00000  -0.00000  -0.00000   0.00000
   2   29312.4    341.2   0.000022555   0.00000  -0.00000   0.00213   0.00000
   3   34321.7    291.4   0.000180215   0.00004   0.00000  -0.00650  -0.00000
   4   34648.6    288.6   0.000000000   0.00000  -0.00000  -0.00000  -0.00000
   5   63056.1    158.6   0.008883203   0.00383  -0.06187  -0.00002  -0.00001
   6   63320.5    157.9   0.000101418   0.00004   0.00000   0.00000  -0.00662
   7   64067.9    156.1   0.000000000   0.00000  -0.00000   0.00000   0.00000
   8   64614.2    154.8   0.015312829   0.00676  -0.00000   0.08223   0.00000
   9   68242.3    146.5   0.000007618   0.00000  -0.00187   0.00017   0.00011
  10   68451.4    146.1   0.000032225   0.00002  -0.00000   0.00011   0.00388

-------------------------------------------------------------------
                             CD SPECTRUM
-------------------------------------------------------------------
State   Energy Wavelength       R         MX        MY        MZ   
        (cm-1)   (nm)       (1e40*sgs)   (au)      (au)      (au)  
-------------------------------------------------------------------
   1   28914.2    345.9      0.00000  -0.00000  -0.00000  -0.48161
   2   29312.4    341.2      0.00000   0.00521   0.00000   0.00000
   3   34321.7    291.4      0.00000  -0.00620  -0.00000  -0.00000
   4   34648.6    288.6      0.00000  -0.00000   0.00000   0.67538
   5   63056.1    158.6      0.00027   0.00002   0.09983  -0.00018
   6   63320.5    157.9     -0.00000  -0.00000   0.00000   0.00000
   7   64067.9    156.1      0.00000   0.00000   0.00000   0.22565
   8   64614.2    154.8      0.00000   0.20700  -0.00000  -0.00000
   9   68242.3    146.5      0.06902  -0.00028   0.38961   0.00188
  10   68451.4    146.1      0.00044   0.00099  -0.00002   0.00008

Total run time:       18.934 sec

           *** ORCA-CIS/TD-DFT FINISHED WITHOUT ERROR ***

-----------------------
CIS/TD-DFT TOTAL ENERGY
-----------------------

    E(SCF)  =   -228.724321422 Eh
    DE(CIS) =      0.131742703 Eh (Root  1)
    ----------------------------- ---------
    E(tot)  =   -228.592578719 Eh


-------------------------   --------------------
FINAL SINGLE POINT ENERGY      -228.592578719113
-------------------------   --------------------


                            ***************************************
                            *     ORCA property calculations      *
                            ***************************************

                                    ---------------------
                                    Active property flags
                                    ---------------------
   (+) Dipole Moment


------------------------------------------------------------------------------
                       ORCA ELECTRIC PROPERTIES CALCULATION
------------------------------------------------------------------------------

Dipole Moment Calculation                       ... on
Quadrupole Moment Calculation                   ... off
Polarizability Calculation                      ... off
GBWName                                         ... orca.gbw
Electron density file                           ... orca.scfp.tmp

-------------
DIPOLE MOMENT
-------------
                                X             Y             Z
Electronic contribution:     -0.00000       0.00000      -2.91342
Nuclear contribution   :      0.00000       0.00000       4.38230
                        -----------------------------------------
Total Dipole Moment    :     -0.00000       0.00000       1.46888
                        -----------------------------------------
Magnitude (a.u.)       :      1.46888
Magnitude (Debye)      :      3.73360


Timings for individual modules:

Sum of individual times         ...       33.788 sec (=   0.563 min)
GTO integral calculation        ...        1.488 sec (=   0.025 min)   4.4 %
SCF iterations                  ...       12.058 sec (=   0.201 min)  35.7 %
CIS module                      ...       20.242 sec (=   0.337 min)  59.9 %
                             ****ORCA TERMINATED NORMALLY****
TOTAL RUN TIME: 0 days 0 hours 0 minutes 35 seconds 446 msec
