
                                 *****************
                                 * O   R   C   A *
                                 *****************

           --- An Ab Initio, DFT and Semiempirical electronic structure package ---

                  #######################################################
                  #                        -***-                        #
                  #  Department of molecular theory and spectroscopy    #
                  #              Directorship: Frank Neese              #
                  # Max Planck Institute for Chemical Energy Conversion #
                  #                  D-45470 Muelheim/Ruhr              #
                  #                       Germany                       #
                  #                                                     #
                  #                  All rights reserved                #
                  #                        -***-                        #
                  #######################################################


                         Program Version 4.0.1 -  RELEASE  -


 With contributions from (in alphabetic order):
   Daniel Aravena         : Magnetic Properties
   Michael Atanasov       : Ab Initio Ligand Field Theory
   Ute Becker             : Parallelization
   Martin Brehm           : Molecular dynamics
   Dmytro Bykov           : SCF Hessian
   Vijay G. Chilkuri      : MRCI spin determinant printing
   Dipayan Datta          : RHF DLPNO-CCSD density
   Achintya Kumar Dutta   : EOM-CC, STEOM-CC
   Dmitry Ganyushin       : Spin-Orbit,Spin-Spin,Magnetic field MRCI
   Yang Guo               : DLPNO-NEVPT2, CIM, IAO-localization
   Andreas Hansen         : Spin unrestricted coupled pair/coupled cluster methods
   Lee Huntington         : MR-EOM, pCC
   Robert Izsak           : Overlap fitted RIJCOSX, COSX-SCS-MP3, EOM
   Christian Kollmar      : KDIIS, OOCD, Brueckner-CCSD(T), CCSD density
   Simone Kossmann        : Meta GGA functionals, TD-DFT gradient, OOMP2, MP2 Hessian
   Martin Krupicka        : AUTO-CI
   Dagmar Lenk            : GEPOL surface
   Dimitrios Liakos       : Extrapolation schemes; parallel MDCI
   Dimitrios Manganas     : ROCIS; embedding schemes
   Dimitrios Pantazis     : SARC Basis sets
   Taras Petrenko         : DFT Hessian,TD-DFT gradient, ASA, ECA, R-Raman, ABS, FL, XAS/XES, NRVS
   Peter Pinski           : DLPNO-MP2
   Christoph Reimann      : Effective Core Potentials
   Marius Retegan         : Local ZFS, SOC
   Christoph Riplinger    : Optimizer, TS searches, QM/MM, DLPNO-CCSD(T), (RO)-DLPNO pert. Triples
   Tobias Risthaus        : Range-separated hybrids, TD-DFT gradient, RPA, STAB
   Michael Roemelt        : Restricted open shell CIS
   Masaaki Saitow         : Open-shell DLPNO
   Barbara Sandhoefer     : DKH picture change effects
   Kantharuban Sivalingam : CASSCF convergence, NEVPT2, FIC-MRCI
   Georgi Stoychev        : AutoAux
   Boris Wezisla          : Elementary symmetry handling
   Frank Wennmohs         : Technical directorship


 We gratefully acknowledge several colleagues who have allowed us to
 interface, adapt or use parts of their codes:
   Stefan Grimme, W. Hujo, H. Kruse,             : VdW corrections, initial TS optimization,
                  C. Bannwarth                     DFT functionals, gCP, sTDA/sTD-DF
   Ed Valeev                                     : LibInt (2-el integral package), F12 methods
   Garnet Chan, S. Sharma, J. Yang, R. Olivares  : DMRG
   Ulf Ekstrom                                   : XCFun DFT Library
   Mihaly Kallay                                 : mrcc  (arbitrary order and MRCC methods)
   Andreas Klamt, Michael Diedenhofen            : otool_cosmo (COSMO solvation model)
   Jiri Pittner, Ondrej Demel                    : Mk-CCSD
   Frank Weinhold                                : gennbo (NPA and NBO analysis)
   Christopher J. Cramer and Donald G. Truhlar   : smd solvation model


 Your calculation uses the libint2 library for the computation of 2-el integrals
 For citations please refer to: http://libint.valeyev.net

 This ORCA versions uses:
   CBLAS   interface :  Fast vector & matrix operations
   LAPACKE interface :  Fast linear algebra routines
   SCALAPACK package :  Parallel linear algebra routines


Your calculation utilizes the basis: 6-31G*
   H-He, Li-Ne : W. J. Hehre, R. Ditchfield and J.A. Pople, J. Chem. Phys. 56, 2257 (1972).
                 Note: He and Ne are unpublished basis sets taken from the Gaussian program.
                 Note: Li and B from J. D. Dill and J. A. Pople, J. Chem. Phys. 62, 2921 (1975).
   Na - Ar     : M. M. Francl, W. J. Pietro, W. J. Hehre, J. S. Binkley, M. S. Gordon, 
                 D. J. DeFrees and J. A. Pople, J. Chem. Phys. 77, 3654 (1982).
   K - Zn      : V. A. Rassolov, J. A. Pople, M. A. Ratner, and T. L. Windus, J. Chem. Phys. 109, 1223 (1998).

Your calculation utilizes the auxiliary basis: def2/J
   F. Weigend, Phys. Chem. Chem. Phys. 8, 1057 (2006).

================================================================================
                                        WARNINGS
                       Please study these warnings very carefully!
================================================================================

Warning: TCutStore was < 0. Adjusted to Thresh (uncritical)
INFO   : Checking CIS options ...

WARNING: CIS/ROCIS methods need fully converged wavefunctions
  ===> : Setting SCFConvForced true
         You can overwrite this default with %scf ConvForced false 


INFO   : the flag for use of LIBINT has been found!

================================================================================
                                       INPUT FILE
================================================================================
NAME = orca.in
|  1> ! RKS PBE 6-31G*
|  2> %tddft
|  3>  nroots 10
|  4> end
|  5> %output
|  6>  PrintLevel Normal
|  7>  Print[ P_MOs ] 1
|  8>  Print[ P_Overlap ] 1
|  9> end
| 10> 
| 11> %maxcore 4000
| 12> 
| 13> *xyz 0 1
| 14> C          1.75000        0.00000        0.59225
| 15> C         -1.75000        0.00000        0.59225
| 16> O          1.75000        0.00000       -0.59537
| 17> O         -1.75000        0.00000       -0.59537
| 18> H          1.75000        0.92490        1.17073
| 19> H         -1.75000        0.92490        1.17073
| 20> H          1.75000       -0.92490        1.17073
| 21> H         -1.75000       -0.92490        1.17073
| 22> *
| 23> 
| 24>                          ****END OF INPUT****
================================================================================

                       ****************************
                       * Single Point Calculation *
                       ****************************

---------------------------------
CARTESIAN COORDINATES (ANGSTROEM)
---------------------------------
  C      1.750000    0.000000    0.592250
  C     -1.750000    0.000000    0.592250
  O      1.750000    0.000000   -0.595370
  O     -1.750000    0.000000   -0.595370
  H      1.750000    0.924900    1.170730
  H     -1.750000    0.924900    1.170730
  H      1.750000   -0.924900    1.170730
  H     -1.750000   -0.924900    1.170730

----------------------------
CARTESIAN COORDINATES (A.U.)
----------------------------
  NO LB      ZA    FRAG     MASS         X           Y           Z
   0 C     6.0000    0    12.011    3.307021    0.000000    1.119190
   1 C     6.0000    0    12.011   -3.307021    0.000000    1.119190
   2 O     8.0000    0    15.999    3.307021    0.000000   -1.125086
   3 O     8.0000    0    15.999   -3.307021    0.000000   -1.125086
   4 H     1.0000    0     1.008    3.307021    1.747808    2.212359
   5 H     1.0000    0     1.008   -3.307021    1.747808    2.212359
   6 H     1.0000    0     1.008    3.307021   -1.747808    2.212359
   7 H     1.0000    0     1.008   -3.307021   -1.747808    2.212359

--------------------------------
INTERNAL COORDINATES (ANGSTROEM)
--------------------------------
 C      0   0   0     0.000000000000     0.00000000     0.00000000
 C      1   0   0     3.500000000000     0.00000000     0.00000000
 O      1   2   0     1.187620000000    90.00000000     0.00000000
 O      2   1   3     1.187620000000    90.00000000     0.00000000
 H      1   2   3     1.090907475637    90.00000000   122.02397778
 H      2   1   3     1.090907475637    90.00000000   237.97602222
 H      1   2   3     1.090907475637    90.00000000   237.97602222
 H      2   1   3     1.090907475637    90.00000000   122.02397778

---------------------------
INTERNAL COORDINATES (A.U.)
---------------------------
 C      0   0   0     0.000000000000     0.00000000     0.00000000
 C      1   0   0     6.614041468724     0.00000000     0.00000000
 O      1   2   0     2.244276551168    90.00000000     0.00000000
 O      2   1   3     2.244276551168    90.00000000     0.00000000
 H      1   2   3     2.061516366401    90.00000000   122.02397778
 H      2   1   3     2.061516366401    90.00000000   237.97602222
 H      1   2   3     2.061516366401    90.00000000   237.97602222
 H      2   1   3     2.061516366401    90.00000000   122.02397778

---------------------
BASIS SET INFORMATION
---------------------
There are 3 groups of distinct atoms

 Group   1 Type C   : 10s4p1d contracted to 3s2p1d pattern {631/31/1}
 Group   2 Type O   : 10s4p1d contracted to 3s2p1d pattern {631/31/1}
 Group   3 Type H   : 4s contracted to 2s pattern {31}

Atom   0C    basis set group =>   1
Atom   1C    basis set group =>   1
Atom   2O    basis set group =>   2
Atom   3O    basis set group =>   2
Atom   4H    basis set group =>   3
Atom   5H    basis set group =>   3
Atom   6H    basis set group =>   3
Atom   7H    basis set group =>   3
-------------------------------
AUXILIARY BASIS SET INFORMATION
-------------------------------
There are 3 groups of distinct atoms

 Group   1 Type C   : 12s5p4d2f1g contracted to 6s4p3d1f1g pattern {711111/2111/211/2/1}
 Group   2 Type O   : 12s5p4d2f1g contracted to 6s4p3d1f1g pattern {711111/2111/211/2/1}
 Group   3 Type H   : 5s2p1d contracted to 3s1p1d pattern {311/2/1}

Atom   0C    basis set group =>   1
Atom   1C    basis set group =>   1
Atom   2O    basis set group =>   2
Atom   3O    basis set group =>   2
Atom   4H    basis set group =>   3
Atom   5H    basis set group =>   3
Atom   6H    basis set group =>   3
Atom   7H    basis set group =>   3
------------------------------------------------------------------------------
                           ORCA GTO INTEGRAL CALCULATION
                           -- RI-GTO INTEGRALS CHOSEN --
------------------------------------------------------------------------------

                         BASIS SET STATISTICS AND STARTUP INFO

Gaussian basis set:
 # of primitive gaussian shells          ...   76
 # of primitive gaussian functions       ...  124
 # of contracted shells                  ...   32
 # of contracted basis functions         ...   64
 Highest angular momentum                ...    2
 Maximum contraction depth               ...    6
Auxiliary gaussian basis set:
 # of primitive gaussian shells          ...  128
 # of primitive gaussian functions       ...  344
 # of contracted shells                  ...   80
 # of contracted aux-basis functions     ...  240
 Highest angular momentum                ...    4
 Maximum contraction depth               ...    7
Ratio of auxiliary to basis functions    ...  3.75
Integral package used                  ... LIBINT
 One Electron integrals                  ... done
 Ordering auxiliary basis shells         ... done
 Integral threshhold             Thresh  ...  1.000e-10
 Primitive cut-off               TCut    ...  1.000e-11
 Pre-screening matrix                    ... done
 Shell pair data                         ... 
 Ordering of the shell pairs             ... done (   0.000 sec) 506 of 528 pairs
 Determination of significant pairs      ... done (   0.000 sec)
 Creation of shell pair data             ... done (   0.000 sec)
 Storage of shell pair data              ... done (   0.003 sec)
 Shell pair data done in (   0.003 sec)
 Computing two index integrals           ... done
 Cholesky decomposition of the V-matrix  ... done


Timings:
 Total evaluation time                   ...   0.203 sec (  0.003 min)
 One electron matrix time                ...   0.017 sec (  0.000 min) =  8.4%
 Schwartz matrix evaluation time         ...   0.146 sec (  0.002 min) = 71.9%
 Two index repulsion integral time       ...   0.004 sec (  0.000 min) =  2.0%
 Cholesky decomposition of V             ...   0.004 sec (  0.000 min) =  1.7%
 Three index repulsion integral time     ...   0.000 sec (  0.000 min) =  0.0%

-------------------------------------------------------------------------------
                                 ORCA SCF
-------------------------------------------------------------------------------

------------
SCF SETTINGS
------------
Hamiltonian:
 Density Functional     Method          .... DFT(GTOs)
 Exchange Functional    Exchange        .... PBE
   PBE kappa parameter   XKappa         ....  0.804000
   PBE mue parameter    XMuePBE         ....  0.219520
 Correlation Functional Correlation     .... PBE
   PBE beta parameter  CBetaPBE         ....  0.066725
 LDA part of GGA corr.  LDAOpt          .... PW91-LDA
 Gradients option       PostSCFGGA      .... off
   NL short-range parameter             ....  6.400000
 RI-approximation to the Coulomb term is turned on
   Number of auxiliary basis functions  .... 240


General Settings:
 Integral files         IntName         .... orca
 Hartree-Fock type      HFTyp           .... RHF
 Total Charge           Charge          ....    0
 Multiplicity           Mult            ....    1
 Number of Electrons    NEL             ....   32
 Basis Dimension        Dim             ....   64
 Nuclear Repulsion      ENuc            ....    100.5856573584 Eh

Convergence Acceleration:
 DIIS                   CNVDIIS         .... on
   Start iteration      DIISMaxIt       ....    12
   Startup error        DIISStart       ....  0.200000
   # of expansion vecs  DIISMaxEq       ....     5
   Bias factor          DIISBfac        ....   1.050
   Max. coefficient     DIISMaxC        ....  10.000
 Newton-Raphson         CNVNR           .... off
 SOSCF                  CNVSOSCF        .... on
   Start iteration      SOSCFMaxIt      ....   150
   Startup grad/error   SOSCFStart      ....  0.003300
 Level Shifting         CNVShift        .... on
   Level shift para.    LevelShift      ....    0.2500
   Turn off err/grad.   ShiftErr        ....    0.0010
 Zerner damping         CNVZerner       .... off
 Static damping         CNVDamp         .... on
   Fraction old density DampFac         ....    0.7000
   Max. Damping (<1)    DampMax         ....    0.9800
   Min. Damping (>=0)   DampMin         ....    0.0000
   Turn off err/grad.   DampErr         ....    0.1000
 Fernandez-Rico         CNVRico         .... off

SCF Procedure:
 Maximum # iterations   MaxIter         ....   125
 SCF integral mode      SCFMode         .... Direct
   Integral package                     .... LIBINT
 Reset frequeny         DirectResetFreq ....    20
 Integral Threshold     Thresh          ....  1.000e-10 Eh
 Primitive CutOff       TCut            ....  1.000e-11 Eh

Convergence Tolerance:
 Convergence Check Mode ConvCheckMode   .... Total+1el-Energy
 Convergence forced     ConvForced      .... 1
 Energy Change          TolE            ....  1.000e-06 Eh
 1-El. energy change                    ....  1.000e-03 Eh
 Orbital Gradient       TolG            ....  5.000e-05
 Orbital Rotation angle TolX            ....  5.000e-05
 DIIS Error             TolErr          ....  1.000e-06


Diagonalization of the overlap matrix:
Smallest eigenvalue                        ... 1.423e-02
Time for diagonalization                   ...    0.001 sec
Threshold for overlap eigenvalues          ... 1.000e-08
Number of eigenvalues below threshold      ... 0
Time for construction of square roots      ...    0.006 sec
Total time needed                          ...    0.008 sec

--------------
OVERLAP MATRIX
--------------
                  0          1          2          3          4          5    
      0       1.000000   0.219059  -0.000000  -0.000000   0.000000   0.184261
      1       0.219059   1.000000  -0.000000   0.000000   0.000000   0.812273
      2      -0.000000  -0.000000   1.000000   0.000000   0.000000  -0.000000
      3      -0.000000   0.000000   0.000000   1.000000   0.000000   0.000000
      4       0.000000   0.000000   0.000000   0.000000   1.000000   0.000000
      5       0.184261   0.812273  -0.000000   0.000000   0.000000   1.000000
      6      -0.000000   0.000000   0.569754   0.000000   0.000000   0.000000
      7      -0.000000   0.000000   0.000000   0.569754   0.000000  -0.000000
      8       0.000000   0.000000   0.000000   0.000000   0.569754   0.000000
      9       0.000000   0.000000  -0.000000  -0.000000   0.000000   0.000000
     10       0.000000  -0.000000   0.000000  -0.000000   0.000000   0.000000
     11       0.000000   0.000000   0.000000   0.000000  -0.000000   0.000000
     12       0.000000   0.000000   0.000000   0.000000   0.000000   0.000000
     13       0.000000   0.000000   0.000000   0.000000   0.000000   0.000000
     14       0.000000   0.000000  -0.000000  -0.000000   0.000000   0.000151
     15       0.000000   0.000009  -0.000000  -0.000028   0.000000   0.003115
     16      -0.000000  -0.000000   0.000004   0.000000   0.000000  -0.000000
     17       0.000000   0.000028  -0.000000  -0.000086   0.000000   0.005041
     18       0.000000   0.000000   0.000000   0.000000   0.000004   0.000000
     19       0.000151   0.003115  -0.000000  -0.005041   0.000000   0.024966
     20      -0.000000   0.000000   0.001856   0.000000   0.000000   0.000000
     21       0.000787   0.012840  -0.000000  -0.019245   0.000000   0.067825
     22       0.000000   0.000000   0.000000   0.000000   0.001856   0.000000
     23       0.000000  -0.000005   0.000000   0.000018   0.000000  -0.001825
     24       0.000000   0.000000   0.000002   0.000000   0.000000   0.000000
     25       0.000000   0.000000   0.000000   0.000000   0.000000   0.000000
     26       0.000000   0.000009   0.000000  -0.000031   0.000000   0.003161
     27       0.000000   0.000000   0.000000   0.000000   0.000002   0.000000
     28       0.000004   0.023499  -0.048011   0.000000   0.000000   0.052028
     29       0.009684   0.184802  -0.289653   0.000000   0.000000   0.297304
     30       0.022743   0.214595  -0.286863   0.000000   0.000000   0.148229
     31      -0.000000   0.000000  -0.000000   0.097569   0.000000   0.000000
     32       0.000000   0.000000   0.000000   0.000000   0.097569   0.000000
     33       0.070318   0.387667  -0.342677   0.000000   0.000000   0.568889
     34       0.154830   0.586874  -0.260818   0.000000   0.000000   0.510252
     35      -0.000000   0.000000  -0.000000   0.293847   0.000000   0.000000
     36       0.000000   0.000000   0.000000   0.000000   0.293847   0.000000
     37       0.106170   0.283388  -0.259027   0.000000   0.000000   0.092429
     38       0.000000  -0.000000  -0.000000   0.269953   0.000000  -0.000000
     39       0.000000   0.000000   0.000000   0.000000   0.269953   0.000000
     40       0.000000   0.000000   0.000000   0.000000   0.000000   0.000000
     41       0.000000   0.000000   0.000000   0.000000   0.000000   0.000000
     42       0.000000   0.000000   0.000000   0.000000   0.000000   0.000038
     43       0.000000   0.000000  -0.000000  -0.000000   0.000000   0.000552
     44       0.000000   0.000000  -0.000000  -0.000000   0.000000   0.000250
     45       0.000000   0.000000  -0.000000  -0.000000   0.000000   0.000737
     46       0.000000   0.000000   0.000000   0.000000   0.000000   0.000000
     47       0.000001   0.000156  -0.000113  -0.000334   0.000000   0.006058
     48       0.000002   0.000243  -0.000080  -0.000523   0.000000   0.005434
     49       0.000007   0.000715  -0.000523  -0.001444   0.000000   0.016014
     50       0.000000   0.000000   0.000000   0.000000   0.000097   0.000000
     51       0.000000  -0.000001   0.000001   0.000003   0.000000  -0.000696
     52       0.000000   0.000001  -0.000001  -0.000004   0.000000   0.001063
     53       0.000000   0.000000   0.000000   0.000000   0.000000   0.000000
     54       0.000000   0.000002  -0.000002  -0.000006   0.000000   0.001567
     55       0.000000   0.000000   0.000000   0.000000   0.000000   0.000000
     56       0.032609   0.273116   0.195552  -0.000000   0.312657   0.376677
     57       0.092101   0.475730   0.140914   0.000000   0.225299   0.704119
     58       0.000000   0.000001   0.000000  -0.000002   0.000001   0.001018
     59       0.000102   0.002185   0.000563  -0.003408   0.000901   0.019103
     60       0.032609   0.273116   0.195552  -0.000000  -0.312657   0.376677
     61       0.092101   0.475730   0.140914   0.000000  -0.225299   0.704119
     62       0.000000   0.000001   0.000000  -0.000002  -0.000001   0.001018
     63       0.000102   0.002185   0.000563  -0.003408  -0.000901   0.019103
                  6          7          8          9         10         11    
      0      -0.000000  -0.000000   0.000000   0.000000   0.000000   0.000000
      1       0.000000   0.000000   0.000000   0.000000  -0.000000   0.000000
      2       0.569754   0.000000   0.000000  -0.000000   0.000000   0.000000
      3       0.000000   0.569754   0.000000  -0.000000  -0.000000   0.000000
      4       0.000000   0.000000   0.569754   0.000000   0.000000  -0.000000
      5       0.000000  -0.000000   0.000000   0.000000   0.000000   0.000000
      6       1.000000   0.000000   0.000000   0.000000  -0.000000   0.000000
      7       0.000000   1.000000   0.000000   0.000000   0.000000   0.000000
      8       0.000000   0.000000   1.000000   0.000000   0.000000   0.000000
      9       0.000000   0.000000   0.000000   1.000000   0.000000   0.000000
     10      -0.000000   0.000000   0.000000   0.000000   1.000000   0.000000
     11       0.000000   0.000000   0.000000   0.000000   0.000000   1.000000
     12       0.000000  -0.000000   0.000000  -0.000000   0.000000   0.000000
     13       0.000000   0.000000  -0.000000   0.000000   0.000000   0.000000
     14      -0.000000  -0.000787   0.000000   0.000000   0.000000   0.000000
     15       0.000000  -0.012840   0.000000  -0.000005   0.000000   0.000000
     16       0.001856   0.000000   0.000000   0.000000  -0.000002   0.000000
     17      -0.000000  -0.019245   0.000000  -0.000018   0.000000   0.000000
     18       0.000000   0.000000   0.001856   0.000000   0.000000   0.000000
     19       0.000000  -0.067825   0.000000  -0.001825   0.000000   0.000000
     20       0.024966   0.000000   0.000000   0.000000  -0.002327   0.000000
     21       0.000000  -0.159294   0.000000  -0.006846   0.000000   0.000000
     22       0.000000   0.000000   0.024966   0.000000   0.000000   0.000000
     23       0.000000   0.006846   0.000000   0.000002   0.000000   0.000000
     24       0.002327   0.000000   0.000000   0.000000  -0.000001   0.000000
     25       0.000000   0.000000   0.000000   0.000000   0.000000   0.000000
     26       0.000000  -0.011857   0.000000  -0.000004   0.000000   0.000000
     27       0.000000   0.000000   0.002327   0.000000   0.000000   0.000000
     28      -0.094012   0.000000   0.000000   0.067480   0.000000   0.000000
     29      -0.465679   0.000000   0.000000   0.313272   0.000000   0.000000
     30      -0.076389   0.000000   0.000000   0.303403  -0.000000   0.000000
     31       0.000000   0.160798   0.000000   0.000000  -0.190932   0.000000
     32       0.000000   0.000000   0.160798   0.000000   0.000000  -0.190932
     33      -0.645499   0.000000   0.000000   0.173558   0.000000   0.000000
     34      -0.025447   0.000000   0.000000   0.004997   0.000000   0.000000
     35       0.000000   0.553519   0.000000   0.000000  -0.257776   0.000000
     36       0.000000   0.000000   0.553519   0.000000   0.000000  -0.257776
     37       0.059804   0.000000   0.000000   0.138629   0.000000   0.000000
     38       0.000000   0.173667   0.000000   0.000000  -0.404001   0.000000
     39       0.000000   0.000000   0.173667   0.000000   0.000000  -0.404001
     40       0.000000  -0.000000   0.000000   0.000000   0.000000   0.000000
     41       0.000000   0.000000  -0.000000   0.000000   0.000000   0.000000
     42      -0.000068  -0.000200   0.000000   0.000000   0.000000   0.000000
     43      -0.000869  -0.002562   0.000000  -0.000000   0.000000   0.000000
     44      -0.000127  -0.001173   0.000000  -0.000000   0.000000   0.000000
     45      -0.001173  -0.003184   0.000000  -0.000000   0.000000   0.000000
     46       0.000000   0.000000   0.000271   0.000000   0.000000  -0.000000
     47      -0.006874  -0.020259   0.000000  -0.000085   0.000129   0.000000
     48      -0.000271  -0.018171   0.000000  -0.000191   0.000115   0.000000
     49      -0.018171  -0.047655   0.000000  -0.000372   0.000628   0.000000
     50       0.000000   0.000000   0.005895   0.000000   0.000000  -0.000038
     51       0.001512   0.002459   0.000000   0.000000  -0.000000   0.000000
     52      -0.000466  -0.004380   0.000000  -0.000000   0.000000   0.000000
     53       0.000000   0.000000   0.000391   0.000000   0.000000  -0.000000
     54      -0.002386  -0.005878   0.000000  -0.000000   0.000001   0.000000
     55       0.000000   0.000000   0.001154   0.000000   0.000000  -0.000000
     56       0.273060  -0.000000   0.436581  -0.026438   0.000000   0.263218
     57       0.309037  -0.000000   0.494102  -0.006313   0.000000   0.062853
     58       0.000729  -0.004409   0.001165  -0.000000  -0.000000   0.000000
     59       0.008384  -0.050728   0.013405  -0.001189  -0.000670   0.000177
     60       0.273060  -0.000000  -0.436581  -0.026438   0.000000  -0.263218
     61       0.309037  -0.000000  -0.494102  -0.006313   0.000000  -0.062853
     62       0.000729  -0.004409  -0.001165  -0.000000  -0.000000  -0.000000
     63       0.008384  -0.050728  -0.013405  -0.001189  -0.000670  -0.000177
                 12         13         14         15         16         17    
      0       0.000000   0.000000   0.000000   0.000000  -0.000000   0.000000
      1       0.000000   0.000000   0.000000   0.000009  -0.000000   0.000028
      2       0.000000   0.000000  -0.000000  -0.000000   0.000004  -0.000000
      3       0.000000   0.000000  -0.000000  -0.000028   0.000000  -0.000086
      4       0.000000   0.000000   0.000000   0.000000   0.000000   0.000000
      5       0.000000   0.000000   0.000151   0.003115  -0.000000   0.005041
      6       0.000000   0.000000  -0.000000   0.000000   0.001856  -0.000000
      7      -0.000000   0.000000  -0.000787  -0.012840   0.000000  -0.019245
      8       0.000000  -0.000000   0.000000   0.000000   0.000000   0.000000
      9      -0.000000   0.000000   0.000000  -0.000005   0.000000  -0.000018
     10       0.000000   0.000000   0.000000   0.000000  -0.000002   0.000000
     11       0.000000   0.000000   0.000000   0.000000   0.000000   0.000000
     12       1.000000   0.000000   0.000000   0.000009   0.000000   0.000031
     13       0.000000   1.000000   0.000000   0.000000   0.000000   0.000000
     14       0.000000   0.000000   1.000000   0.219059  -0.000000   0.000000
     15       0.000009   0.000000   0.219059   1.000000  -0.000000  -0.000000
     16       0.000000   0.000000  -0.000000  -0.000000   1.000000  -0.000000
     17       0.000031   0.000000   0.000000  -0.000000  -0.000000   1.000000
     18       0.000000  -0.000002   0.000000   0.000000   0.000000   0.000000
     19       0.003161   0.000000   0.184261   0.812273  -0.000000  -0.000000
     20       0.000000   0.000000  -0.000000   0.000000   0.569754  -0.000000
     21       0.011857   0.000000   0.000000  -0.000000  -0.000000   0.569754
     22       0.000000  -0.002327   0.000000   0.000000   0.000000   0.000000
     23      -0.000004   0.000000   0.000000   0.000000  -0.000000   0.000000
     24       0.000000   0.000000  -0.000000   0.000000  -0.000000  -0.000000
     25       0.000000   0.000000   0.000000   0.000000   0.000000   0.000000
     26       0.000007   0.000000   0.000000   0.000000   0.000000  -0.000000
     27       0.000000  -0.000001   0.000000   0.000000   0.000000   0.000000
     28       0.000000   0.000000   0.000000   0.000000   0.000000   0.000000
     29       0.000000   0.000000   0.000000   0.000000  -0.000000   0.000000
     30       0.000000   0.000000   0.000000   0.000000  -0.000000   0.000000
     31       0.000000   0.000000   0.000000  -0.000000   0.000000  -0.000000
     32       0.000000   0.000000   0.000000   0.000000   0.000000   0.000000
     33       0.000000   0.000000   0.000001   0.000156  -0.000113   0.000334
     34       0.000000   0.000000   0.000002   0.000243  -0.000080   0.000523
     35       0.000000   0.000000  -0.000007  -0.000715   0.000523  -0.001444
     36       0.000000   0.000000   0.000000   0.000000   0.000000   0.000000
     37       0.000000   0.000000   0.000000  -0.000001   0.000001  -0.000003
     38       0.000000   0.000000   0.000000  -0.000001   0.000001  -0.000004
     39       0.000000   0.000000   0.000000   0.000000   0.000000   0.000000
     40       0.133359   0.000000   0.000000   0.000002  -0.000002   0.000006
     41       0.000000   0.133359   0.000000   0.000000   0.000000   0.000000
     42       0.000000   0.000000   0.000004   0.023499  -0.048011  -0.000000
     43       0.000000   0.000000   0.009684   0.184802  -0.289653  -0.000000
     44       0.000000   0.000000   0.022743   0.214595  -0.286863  -0.000000
     45       0.000000   0.000000   0.000000  -0.000000   0.000000   0.097569
     46       0.000000  -0.000000   0.000000   0.000000   0.000000   0.000000
     47       0.000191   0.000000   0.070318   0.387667  -0.342677  -0.000000
     48       0.000333   0.000000   0.154830   0.586874  -0.260818  -0.000000
     49       0.000869   0.000000   0.000000  -0.000000   0.000000   0.293847
     50       0.000000  -0.000111   0.000000   0.000000   0.000000   0.000000
     51      -0.000000   0.000000   0.106170   0.283388  -0.259027  -0.000000
     52       0.000001   0.000000  -0.000000   0.000000   0.000000   0.269953
     53       0.000000  -0.000000   0.000000   0.000000   0.000000   0.000000
     54       0.000001   0.000000   0.000000   0.000000   0.000000  -0.000000
     55       0.000000  -0.000000   0.000000   0.000000   0.000000   0.000000
     56      -0.210422   0.000000   0.000000   0.000001   0.000000   0.000002
     57      -0.050246   0.000000   0.000102   0.002185   0.000563   0.003408
     58       0.000000  -0.000000   0.032609   0.273116   0.195552   0.000000
     59       0.001886  -0.001072   0.092101   0.475730   0.140914  -0.000000
     60      -0.210422  -0.000000   0.000000   0.000001   0.000000   0.000002
     61      -0.050246  -0.000000   0.000102   0.002185   0.000563   0.003408
     62       0.000000   0.000000   0.032609   0.273116   0.195552   0.000000
     63       0.001886   0.001072   0.092101   0.475730   0.140914  -0.000000
                 18         19         20         21         22         23    
      0       0.000000   0.000151  -0.000000   0.000787   0.000000   0.000000
      1       0.000000   0.003115   0.000000   0.012840   0.000000  -0.000005
      2       0.000000  -0.000000   0.001856  -0.000000   0.000000   0.000000
      3       0.000000  -0.005041   0.000000  -0.019245   0.000000   0.000018
      4       0.000004   0.000000   0.000000   0.000000   0.001856   0.000000
      5       0.000000   0.024966   0.000000   0.067825   0.000000  -0.001825
      6       0.000000   0.000000   0.024966   0.000000   0.000000   0.000000
      7       0.000000  -0.067825   0.000000  -0.159294   0.000000   0.006846
      8       0.001856   0.000000   0.000000   0.000000   0.024966   0.000000
      9       0.000000  -0.001825   0.000000  -0.006846   0.000000   0.000002
     10       0.000000   0.000000  -0.002327   0.000000   0.000000   0.000000
     11       0.000000   0.000000   0.000000   0.000000   0.000000   0.000000
     12       0.000000   0.003161   0.000000   0.011857   0.000000  -0.000004
     13      -0.000002   0.000000   0.000000   0.000000  -0.002327   0.000000
     14       0.000000   0.184261  -0.000000   0.000000   0.000000   0.000000
     15       0.000000   0.812273   0.000000  -0.000000   0.000000   0.000000
     16       0.000000  -0.000000   0.569754  -0.000000   0.000000  -0.000000
     17       0.000000  -0.000000  -0.000000   0.569754   0.000000   0.000000
     18       1.000000   0.000000   0.000000   0.000000   0.569754   0.000000
     19       0.000000   1.000000   0.000000   0.000000   0.000000   0.000000
     20       0.000000   0.000000   1.000000   0.000000   0.000000   0.000000
     21       0.000000   0.000000   0.000000   1.000000   0.000000  -0.000000
     22       0.569754   0.000000   0.000000   0.000000   1.000000   0.000000
     23       0.000000   0.000000   0.000000  -0.000000   0.000000   1.000000
     24       0.000000   0.000000   0.000000   0.000000   0.000000   0.000000
     25      -0.000000   0.000000   0.000000   0.000000   0.000000   0.000000
     26       0.000000   0.000000   0.000000   0.000000   0.000000  -0.000000
     27      -0.000000   0.000000   0.000000   0.000000   0.000000   0.000000
     28       0.000000   0.000038  -0.000068   0.000200   0.000000   0.000000
     29       0.000000   0.000552  -0.000869   0.002562   0.000000  -0.000000
     30       0.000000   0.000250  -0.000127   0.001173   0.000000  -0.000000
     31       0.000000  -0.000737   0.001173  -0.003184   0.000000   0.000000
     32       0.000000   0.000000   0.000000   0.000000   0.000271   0.000000
     33       0.000000   0.006058  -0.006874   0.020259   0.000000  -0.000085
     34       0.000000   0.005434  -0.000271   0.018171   0.000000  -0.000191
     35       0.000000  -0.016014   0.018171  -0.047655   0.000000   0.000372
     36       0.000097   0.000000   0.000000   0.000000   0.005895   0.000000
     37       0.000000  -0.000696   0.001512  -0.002459   0.000000   0.000000
     38       0.000000  -0.001063   0.000466  -0.004380   0.000000   0.000000
     39       0.000000   0.000000   0.000000   0.000000   0.000391   0.000000
     40       0.000000   0.001567  -0.002386   0.005878   0.000000  -0.000000
     41      -0.000000   0.000000   0.000000   0.000000  -0.001154   0.000000
     42       0.000000   0.052028  -0.094012  -0.000000   0.000000   0.067480
     43       0.000000   0.297304  -0.465679   0.000000   0.000000   0.313272
     44       0.000000   0.148229  -0.076389   0.000000   0.000000   0.303403
     45       0.000000   0.000000   0.000000   0.160798   0.000000  -0.000000
     46       0.097569   0.000000   0.000000   0.000000   0.160798   0.000000
     47       0.000000   0.568889  -0.645499   0.000000   0.000000   0.173558
     48       0.000000   0.510252  -0.025447   0.000000   0.000000   0.004997
     49       0.000000   0.000000   0.000000   0.553519   0.000000   0.000000
     50       0.293847   0.000000   0.000000   0.000000   0.553519   0.000000
     51       0.000000   0.092429   0.059804  -0.000000   0.000000   0.138629
     52       0.000000   0.000000  -0.000000   0.173667   0.000000   0.000000
     53       0.269953   0.000000   0.000000   0.000000   0.173667   0.000000
     54       0.000000   0.000000   0.000000   0.000000   0.000000   0.000000
     55      -0.000000   0.000000   0.000000   0.000000   0.000000   0.000000
     56       0.000001   0.001018   0.000729   0.004409   0.001165  -0.000000
     57       0.000901   0.019103   0.008384   0.050728   0.013405  -0.001189
     58       0.312657   0.376677   0.273060   0.000000   0.436581  -0.026438
     59       0.225299   0.704119   0.309037   0.000000   0.494102  -0.006313
     60      -0.000001   0.001018   0.000729   0.004409  -0.001165  -0.000000
     61      -0.000901   0.019103   0.008384   0.050728  -0.013405  -0.001189
     62      -0.312657   0.376677   0.273060   0.000000  -0.436581  -0.026438
     63      -0.225299   0.704119   0.309037   0.000000  -0.494102  -0.006313
                 24         25         26         27         28         29    
      0       0.000000   0.000000   0.000000   0.000000   0.000004   0.009684
      1       0.000000   0.000000   0.000009   0.000000   0.023499   0.184802
      2       0.000002   0.000000   0.000000   0.000000  -0.048011  -0.289653
      3       0.000000   0.000000  -0.000031   0.000000   0.000000   0.000000
      4       0.000000   0.000000   0.000000   0.000002   0.000000   0.000000
      5       0.000000   0.000000   0.003161   0.000000   0.052028   0.297304
      6       0.002327   0.000000   0.000000   0.000000  -0.094012  -0.465679
      7       0.000000   0.000000  -0.011857   0.000000   0.000000   0.000000
      8       0.000000   0.000000   0.000000   0.002327   0.000000   0.000000
      9       0.000000   0.000000  -0.000004   0.000000   0.067480   0.313272
     10      -0.000001   0.000000   0.000000   0.000000   0.000000   0.000000
     11       0.000000   0.000000   0.000000   0.000000   0.000000   0.000000
     12       0.000000   0.000000   0.000007   0.000000   0.000000   0.000000
     13       0.000000   0.000000   0.000000  -0.000001   0.000000   0.000000
     14      -0.000000   0.000000   0.000000   0.000000   0.000000   0.000000
     15       0.000000   0.000000   0.000000   0.000000   0.000000   0.000000
     16      -0.000000   0.000000   0.000000   0.000000   0.000000  -0.000000
     17      -0.000000   0.000000  -0.000000   0.000000   0.000000   0.000000
     18       0.000000  -0.000000   0.000000  -0.000000   0.000000   0.000000
     19       0.000000   0.000000   0.000000   0.000000   0.000038   0.000552
     20       0.000000   0.000000   0.000000   0.000000  -0.000068  -0.000869
     21       0.000000   0.000000   0.000000   0.000000   0.000200   0.002562
     22       0.000000   0.000000   0.000000   0.000000   0.000000   0.000000
     23       0.000000   0.000000  -0.000000   0.000000   0.000000  -0.000000
     24       1.000000   0.000000   0.000000   0.000000   0.000000  -0.000000
     25       0.000000   1.000000   0.000000   0.000000   0.000000   0.000000
     26       0.000000   0.000000   1.000000   0.000000   0.000000   0.000000
     27       0.000000   0.000000   0.000000   1.000000   0.000000   0.000000
     28       0.000000   0.000000   0.000000   0.000000   1.000000   0.233690
     29      -0.000000   0.000000   0.000000   0.000000   0.233690   1.000000
     30      -0.000000   0.000000   0.000000   0.000000  -0.000000   0.000000
     31       0.000000   0.000000  -0.000000   0.000000   0.000000   0.000000
     32       0.000000  -0.000000   0.000000   0.000000   0.000000   0.000000
     33      -0.000129   0.000000   0.000191   0.000000   0.167280   0.763641
     34      -0.000115   0.000000   0.000333   0.000000  -0.000000  -0.000000
     35       0.000628   0.000000  -0.000869   0.000000   0.000000   0.000000
     36       0.000000  -0.000038   0.000000   0.000111   0.000000   0.000000
     37       0.000000   0.000000  -0.000000   0.000000   0.000000   0.000000
     38       0.000000   0.000000  -0.000001   0.000000  -0.000000   0.000000
     39       0.000000  -0.000000   0.000000   0.000000   0.000000   0.000000
     40      -0.000001   0.000000   0.000001   0.000000   0.000000   0.000000
     41       0.000000   0.000000   0.000000  -0.000000   0.000000   0.000000
     42      -0.000000   0.000000   0.000000   0.000000   0.000000   0.000000
     43      -0.000000   0.000000   0.000000   0.000000   0.000000   0.000000
     44       0.000000   0.000000   0.000000   0.000000   0.000000   0.000000
     45      -0.190932   0.000000  -0.000000   0.000000   0.000000   0.000000
     46       0.000000  -0.190932   0.000000  -0.000000   0.000000   0.000000
     47       0.000000   0.000000   0.000000   0.000000   0.000002   0.000073
     48       0.000000   0.000000   0.000000   0.000000  -0.000000  -0.000000
     49      -0.257776   0.000000   0.000000   0.000000   0.000012   0.000395
     50       0.000000  -0.257776   0.000000   0.000000   0.000000   0.000000
     51       0.000000   0.000000   0.000000   0.000000   0.000000  -0.000000
     52      -0.404001   0.000000   0.000000   0.000000   0.000000   0.000000
     53       0.000000  -0.404001   0.000000   0.000000   0.000000   0.000000
     54       0.000000   0.000000   0.133359   0.000000   0.000000   0.000000
     55       0.000000   0.000000   0.000000   0.133359   0.000000   0.000000
     56       0.000000   0.000000   0.000000   0.000000   0.000054   0.003344
     57       0.000670   0.000177   0.001886   0.001072   0.012265   0.084286
     58      -0.000000   0.263218  -0.210422  -0.000000   0.000000   0.000000
     59      -0.000000   0.062853  -0.050246  -0.000000   0.000012   0.000198
     60       0.000000  -0.000000   0.000000  -0.000000   0.000054   0.003344
     61       0.000670  -0.000177   0.001886  -0.001072   0.012265   0.084286
     62      -0.000000  -0.263218  -0.210422   0.000000   0.000000   0.000000
     63      -0.000000  -0.062853  -0.050246   0.000000   0.000012   0.000198
                 30         31         32         33         34         35    
      0       0.022743  -0.000000   0.000000   0.070318   0.154830  -0.000000
      1       0.214595   0.000000   0.000000   0.387667   0.586874   0.000000
      2      -0.286863  -0.000000   0.000000  -0.342677  -0.260818  -0.000000
      3       0.000000   0.097569   0.000000   0.000000   0.000000   0.293847
      4       0.000000   0.000000   0.097569   0.000000   0.000000   0.000000
      5       0.148229   0.000000   0.000000   0.568889   0.510252   0.000000
      6      -0.076389   0.000000   0.000000  -0.645499  -0.025447   0.000000
      7       0.000000   0.160798   0.000000   0.000000   0.000000   0.553519
      8       0.000000   0.000000   0.160798   0.000000   0.000000   0.000000
      9       0.303403   0.000000   0.000000   0.173558   0.004997   0.000000
     10      -0.000000  -0.190932   0.000000   0.000000   0.000000  -0.257776
     11       0.000000   0.000000  -0.190932   0.000000   0.000000   0.000000
     12       0.000000   0.000000   0.000000   0.000000   0.000000   0.000000
     13       0.000000   0.000000   0.000000   0.000000   0.000000   0.000000
     14       0.000000   0.000000   0.000000   0.000001   0.000002  -0.000007
     15       0.000000  -0.000000   0.000000   0.000156   0.000243  -0.000715
     16      -0.000000   0.000000   0.000000  -0.000113  -0.000080   0.000523
     17       0.000000  -0.000000   0.000000   0.000334   0.000523  -0.001444
     18       0.000000   0.000000   0.000000   0.000000   0.000000   0.000000
     19       0.000250  -0.000737   0.000000   0.006058   0.005434  -0.016014
     20      -0.000127   0.001173   0.000000  -0.006874  -0.000271   0.018171
     21       0.001173  -0.003184   0.000000   0.020259   0.018171  -0.047655
     22       0.000000   0.000000   0.000271   0.000000   0.000000   0.000000
     23      -0.000000   0.000000   0.000000  -0.000085  -0.000191   0.000372
     24      -0.000000   0.000000   0.000000  -0.000129  -0.000115   0.000628
     25       0.000000   0.000000  -0.000000   0.000000   0.000000   0.000000
     26       0.000000  -0.000000   0.000000   0.000191   0.000333  -0.000869
     27       0.000000   0.000000   0.000000   0.000000   0.000000   0.000000
     28      -0.000000   0.000000   0.000000   0.167280  -0.000000   0.000000
     29       0.000000   0.000000   0.000000   0.763641  -0.000000   0.000000
     30       1.000000   0.000000   0.000000   0.000000   0.501521   0.000000
     31       0.000000   1.000000   0.000000  -0.000000   0.000000   0.501521
     32       0.000000   0.000000   1.000000   0.000000   0.000000   0.000000
     33       0.000000  -0.000000   0.000000   1.000000   0.000000   0.000000
     34       0.501521   0.000000   0.000000   0.000000   1.000000   0.000000
     35       0.000000   0.501521   0.000000   0.000000   0.000000   1.000000
     36       0.000000   0.000000   0.501521   0.000000   0.000000   0.000000
     37       0.000000  -0.000000   0.000000   0.000000   0.000000   0.000000
     38       0.000000   0.000000   0.000000   0.000000   0.000000   0.000000
     39       0.000000   0.000000   0.000000   0.000000   0.000000   0.000000
     40       0.000000   0.000000   0.000000   0.000000   0.000000   0.000000
     41       0.000000   0.000000   0.000000   0.000000   0.000000   0.000000
     42       0.000000   0.000000   0.000000   0.000002  -0.000000  -0.000012
     43       0.000000  -0.000000   0.000000   0.000073  -0.000000  -0.000395
     44       0.000000   0.000000   0.000000   0.000000   0.000040  -0.000000
     45       0.000000  -0.000000   0.000000   0.000137   0.000000  -0.000708
     46       0.000000   0.000000   0.000000   0.000000   0.000000   0.000000
     47       0.000000  -0.000137   0.000000   0.002724   0.000000  -0.009361
     48       0.000040  -0.000000   0.000000   0.000000   0.002724   0.000000
     49       0.000000  -0.000708   0.000000   0.009361   0.000000  -0.029447
     50       0.000000   0.000000   0.000040   0.000000   0.000000   0.000000
     51       0.000000   0.000000   0.000000  -0.000304   0.000000   0.001387
     52       0.000000   0.000000   0.000000   0.000000   0.000307   0.000000
     53       0.000000   0.000000   0.000000   0.000000   0.000000   0.000000
     54       0.000000  -0.000000   0.000000   0.000527   0.000000  -0.002403
     55       0.000000   0.000000   0.000000   0.000000   0.000000   0.000000
     56       0.005808   0.000000   0.003041   0.051076   0.126870   0.000000
     57       0.058647   0.000000   0.030713   0.227108   0.294561   0.000000
     58       0.000000  -0.000000   0.000000   0.000012   0.000029  -0.000058
     59       0.000127  -0.000252   0.000067   0.002742   0.003556  -0.007047
     60       0.005808   0.000000  -0.003041   0.051076   0.126870   0.000000
     61       0.058647   0.000000  -0.030713   0.227108   0.294561   0.000000
     62       0.000000  -0.000000  -0.000000   0.000012   0.000029  -0.000058
     63       0.000127  -0.000252  -0.000067   0.002742   0.003556  -0.007047
                 36         37         38         39         40         41    
      0       0.000000   0.106170   0.000000   0.000000   0.000000   0.000000
      1       0.000000   0.283388  -0.000000   0.000000   0.000000   0.000000
      2       0.000000  -0.259027  -0.000000   0.000000   0.000000   0.000000
      3       0.000000   0.000000   0.269953   0.000000   0.000000   0.000000
      4       0.293847   0.000000   0.000000   0.269953   0.000000   0.000000
      5       0.000000   0.092429  -0.000000   0.000000   0.000000   0.000000
      6       0.000000   0.059804   0.000000   0.000000   0.000000   0.000000
      7       0.000000   0.000000   0.173667   0.000000  -0.000000   0.000000
      8       0.553519   0.000000   0.000000   0.173667   0.000000  -0.000000
      9       0.000000   0.138629   0.000000   0.000000   0.000000   0.000000
     10       0.000000   0.000000  -0.404001   0.000000   0.000000   0.000000
     11      -0.257776   0.000000   0.000000  -0.404001   0.000000   0.000000
     12       0.000000   0.000000   0.000000   0.000000   0.133359   0.000000
     13       0.000000   0.000000   0.000000   0.000000   0.000000   0.133359
     14       0.000000   0.000000   0.000000   0.000000   0.000000   0.000000
     15       0.000000  -0.000001  -0.000001   0.000000   0.000002   0.000000
     16       0.000000   0.000001   0.000001   0.000000  -0.000002   0.000000
     17       0.000000  -0.000003  -0.000004   0.000000   0.000006   0.000000
     18       0.000097   0.000000   0.000000   0.000000   0.000000  -0.000000
     19       0.000000  -0.000696  -0.001063   0.000000   0.001567   0.000000
     20       0.000000   0.001512   0.000466   0.000000  -0.002386   0.000000
     21       0.000000  -0.002459  -0.004380   0.000000   0.005878   0.000000
     22       0.005895   0.000000   0.000000   0.000391   0.000000  -0.001154
     23       0.000000   0.000000   0.000000   0.000000  -0.000000   0.000000
     24       0.000000   0.000000   0.000000   0.000000  -0.000001   0.000000
     25      -0.000038   0.000000   0.000000  -0.000000   0.000000   0.000000
     26       0.000000  -0.000000  -0.000001   0.000000   0.000001   0.000000
     27       0.000111   0.000000   0.000000   0.000000   0.000000  -0.000000
     28       0.000000   0.000000  -0.000000   0.000000   0.000000   0.000000
     29       0.000000   0.000000   0.000000   0.000000   0.000000   0.000000
     30       0.000000   0.000000   0.000000   0.000000   0.000000   0.000000
     31       0.000000  -0.000000   0.000000   0.000000   0.000000   0.000000
     32       0.501521   0.000000   0.000000   0.000000   0.000000   0.000000
     33       0.000000   0.000000   0.000000   0.000000   0.000000   0.000000
     34       0.000000   0.000000   0.000000   0.000000   0.000000   0.000000
     35       0.000000   0.000000   0.000000   0.000000   0.000000   0.000000
     36       1.000000   0.000000   0.000000   0.000000   0.000000   0.000000
     37       0.000000   1.000000   0.000000   0.000000  -0.000000   0.000000
     38       0.000000   0.000000   1.000000   0.000000   0.000000   0.000000
     39       0.000000   0.000000   0.000000   1.000000   0.000000   0.000000
     40       0.000000  -0.000000   0.000000   0.000000   1.000000   0.000000
     41       0.000000   0.000000   0.000000   0.000000   0.000000   1.000000
     42       0.000000   0.000000   0.000000   0.000000   0.000000   0.000000
     43       0.000000  -0.000000   0.000000   0.000000   0.000000   0.000000
     44       0.000000   0.000000  -0.000000   0.000000   0.000000   0.000000
     45       0.000000  -0.000000   0.000000   0.000000   0.000000   0.000000
     46       0.000040   0.000000   0.000000   0.000000   0.000000  -0.000000
     47       0.000000  -0.000304   0.000000   0.000000   0.000527   0.000000
     48       0.000000   0.000000  -0.000307   0.000000   0.000000   0.000000
     49       0.000000  -0.001387   0.000000   0.000000   0.002403   0.000000
     50       0.002724   0.000000   0.000000   0.000000   0.000000  -0.000307
     51       0.000000   0.000002   0.000000   0.000000  -0.000004   0.000000
     52       0.000000   0.000000  -0.000001   0.000000   0.000000   0.000000
     53       0.000000   0.000000   0.000000   0.000000   0.000000   0.000000
     54       0.000000  -0.000004   0.000000   0.000000   0.000007   0.000000
     55       0.000307   0.000000   0.000000   0.000000   0.000000  -0.000001
     56       0.066441   0.018459   0.000000   0.019404  -0.005081   0.000000
     57       0.154260   0.048055   0.000000   0.050517  -0.013228   0.000000
     58       0.000015  -0.000000  -0.000000   0.000000   0.000000  -0.000000
     59       0.001862  -0.000173  -0.000539   0.000142   0.000497  -0.000282
     60      -0.066441   0.018459   0.000000  -0.019404  -0.005081  -0.000000
     61      -0.154260   0.048055   0.000000  -0.050517  -0.013228  -0.000000
     62      -0.000015  -0.000000  -0.000000  -0.000000   0.000000   0.000000
     63      -0.001862  -0.000173  -0.000539  -0.000142   0.000497   0.000282
                 42         43         44         45         46         47    
      0       0.000000   0.000000   0.000000   0.000000   0.000000   0.000001
      1       0.000000   0.000000   0.000000   0.000000   0.000000   0.000156
      2       0.000000  -0.000000  -0.000000  -0.000000   0.000000  -0.000113
      3       0.000000  -0.000000  -0.000000  -0.000000   0.000000  -0.000334
      4       0.000000   0.000000   0.000000   0.000000   0.000000   0.000000
      5       0.000038   0.000552   0.000250   0.000737   0.000000   0.006058
      6      -0.000068  -0.000869  -0.000127  -0.001173   0.000000  -0.006874
      7      -0.000200  -0.002562  -0.001173  -0.003184   0.000000  -0.020259
      8       0.000000   0.000000   0.000000   0.000000   0.000271   0.000000
      9       0.000000  -0.000000  -0.000000  -0.000000   0.000000  -0.000085
     10       0.000000   0.000000   0.000000   0.000000   0.000000   0.000129
     11       0.000000   0.000000   0.000000   0.000000  -0.000000   0.000000
     12       0.000000   0.000000   0.000000   0.000000   0.000000   0.000191
     13       0.000000   0.000000   0.000000   0.000000  -0.000000   0.000000
     14       0.000004   0.009684   0.022743   0.000000   0.000000   0.070318
     15       0.023499   0.184802   0.214595  -0.000000   0.000000   0.387667
     16      -0.048011  -0.289653  -0.286863   0.000000   0.000000  -0.342677
     17      -0.000000  -0.000000  -0.000000   0.097569   0.000000  -0.000000
     18       0.000000   0.000000   0.000000   0.000000   0.097569   0.000000
     19       0.052028   0.297304   0.148229   0.000000   0.000000   0.568889
     20      -0.094012  -0.465679  -0.076389   0.000000   0.000000  -0.645499
     21      -0.000000   0.000000   0.000000   0.160798   0.000000   0.000000
     22       0.000000   0.000000   0.000000   0.000000   0.160798   0.000000
     23       0.067480   0.313272   0.303403  -0.000000   0.000000   0.173558
     24      -0.000000  -0.000000   0.000000  -0.190932   0.000000   0.000000
     25       0.000000   0.000000   0.000000   0.000000  -0.190932   0.000000
     26       0.000000   0.000000   0.000000  -0.000000   0.000000   0.000000
     27       0.000000   0.000000   0.000000   0.000000  -0.000000   0.000000
     28       0.000000   0.000000   0.000000   0.000000   0.000000   0.000002
     29       0.000000   0.000000   0.000000   0.000000   0.000000   0.000073
     30       0.000000   0.000000   0.000000   0.000000   0.000000   0.000000
     31       0.000000  -0.000000   0.000000  -0.000000   0.000000  -0.000137
     32       0.000000   0.000000   0.000000   0.000000   0.000000   0.000000
     33       0.000002   0.000073   0.000000   0.000137   0.000000   0.002724
     34      -0.000000  -0.000000   0.000040   0.000000   0.000000   0.000000
     35      -0.000012  -0.000395  -0.000000  -0.000708   0.000000  -0.009361
     36       0.000000   0.000000   0.000000   0.000000   0.000040   0.000000
     37       0.000000  -0.000000   0.000000  -0.000000   0.000000  -0.000304
     38       0.000000   0.000000  -0.000000   0.000000   0.000000   0.000000
     39       0.000000   0.000000   0.000000   0.000000   0.000000   0.000000
     40       0.000000   0.000000   0.000000   0.000000   0.000000   0.000527
     41       0.000000   0.000000   0.000000   0.000000  -0.000000   0.000000
     42       1.000000   0.233690  -0.000000  -0.000000   0.000000   0.167280
     43       0.233690   1.000000   0.000000  -0.000000   0.000000   0.763641
     44      -0.000000   0.000000   1.000000   0.000000   0.000000   0.000000
     45      -0.000000  -0.000000   0.000000   1.000000   0.000000   0.000000
     46       0.000000   0.000000   0.000000   0.000000   1.000000   0.000000
     47       0.167280   0.763641   0.000000   0.000000   0.000000   1.000000
     48      -0.000000  -0.000000   0.501521   0.000000   0.000000   0.000000
     49      -0.000000  -0.000000   0.000000   0.501521   0.000000   0.000000
     50       0.000000   0.000000   0.000000   0.000000   0.501521   0.000000
     51       0.000000   0.000000   0.000000   0.000000   0.000000   0.000000
     52       0.000000   0.000000  -0.000000   0.000000   0.000000   0.000000
     53       0.000000   0.000000   0.000000   0.000000   0.000000   0.000000
     54       0.000000   0.000000   0.000000  -0.000000   0.000000   0.000000
     55       0.000000   0.000000   0.000000   0.000000  -0.000000   0.000000
     56       0.000000   0.000000   0.000000   0.000000   0.000000   0.000012
     57       0.000012   0.000198   0.000127   0.000252   0.000067   0.002742
     58       0.000054   0.003344   0.005808  -0.000000   0.003041   0.051076
     59       0.012265   0.084286   0.058647  -0.000000   0.030713   0.227108
     60       0.000000   0.000000   0.000000   0.000000  -0.000000   0.000012
     61       0.000012   0.000198   0.000127   0.000252  -0.000067   0.002742
     62       0.000054   0.003344   0.005808  -0.000000  -0.003041   0.051076
     63       0.012265   0.084286   0.058647  -0.000000  -0.030713   0.227108
                 48         49         50         51         52         53    
      0       0.000002   0.000007   0.000000   0.000000   0.000000   0.000000
      1       0.000243   0.000715   0.000000  -0.000001   0.000001   0.000000
      2      -0.000080  -0.000523   0.000000   0.000001  -0.000001   0.000000
      3      -0.000523  -0.001444   0.000000   0.000003  -0.000004   0.000000
      4       0.000000   0.000000   0.000097   0.000000   0.000000   0.000000
      5       0.005434   0.016014   0.000000  -0.000696   0.001063   0.000000
      6      -0.000271  -0.018171   0.000000   0.001512  -0.000466   0.000000
      7      -0.018171  -0.047655   0.000000   0.002459  -0.004380   0.000000
      8       0.000000   0.000000   0.005895   0.000000   0.000000   0.000391
      9      -0.000191  -0.000372   0.000000   0.000000  -0.000000   0.000000
     10       0.000115   0.000628   0.000000  -0.000000   0.000000   0.000000
     11       0.000000   0.000000  -0.000038   0.000000   0.000000  -0.000000
     12       0.000333   0.000869   0.000000  -0.000000   0.000001   0.000000
     13       0.000000   0.000000  -0.000111   0.000000   0.000000  -0.000000
     14       0.154830   0.000000   0.000000   0.106170  -0.000000   0.000000
     15       0.586874  -0.000000   0.000000   0.283388   0.000000   0.000000
     16      -0.260818   0.000000   0.000000  -0.259027   0.000000   0.000000
     17      -0.000000   0.293847   0.000000  -0.000000   0.269953   0.000000
     18       0.000000   0.000000   0.293847   0.000000   0.000000   0.269953
     19       0.510252   0.000000   0.000000   0.092429   0.000000   0.000000
     20      -0.025447   0.000000   0.000000   0.059804  -0.000000   0.000000
     21       0.000000   0.553519   0.000000  -0.000000   0.173667   0.000000
     22       0.000000   0.000000   0.553519   0.000000   0.000000   0.173667
     23       0.004997   0.000000   0.000000   0.138629   0.000000   0.000000
     24       0.000000  -0.257776   0.000000   0.000000  -0.404001   0.000000
     25       0.000000   0.000000  -0.257776   0.000000   0.000000  -0.404001
     26       0.000000   0.000000   0.000000   0.000000   0.000000   0.000000
     27       0.000000   0.000000   0.000000   0.000000   0.000000   0.000000
     28      -0.000000   0.000012   0.000000   0.000000   0.000000   0.000000
     29      -0.000000   0.000395   0.000000  -0.000000   0.000000   0.000000
     30       0.000040   0.000000   0.000000   0.000000   0.000000   0.000000
     31      -0.000000  -0.000708   0.000000   0.000000   0.000000   0.000000
     32       0.000000   0.000000   0.000040   0.000000   0.000000   0.000000
     33       0.000000   0.009361   0.000000  -0.000304   0.000000   0.000000
     34       0.002724   0.000000   0.000000   0.000000   0.000307   0.000000
     35       0.000000  -0.029447   0.000000   0.001387   0.000000   0.000000
     36       0.000000   0.000000   0.002724   0.000000   0.000000   0.000000
     37       0.000000  -0.001387   0.000000   0.000002   0.000000   0.000000
     38      -0.000307   0.000000   0.000000   0.000000  -0.000001   0.000000
     39       0.000000   0.000000   0.000000   0.000000   0.000000   0.000000
     40       0.000000   0.002403   0.000000  -0.000004   0.000000   0.000000
     41       0.000000   0.000000  -0.000307   0.000000   0.000000   0.000000
     42      -0.000000  -0.000000   0.000000   0.000000   0.000000   0.000000
     43      -0.000000  -0.000000   0.000000   0.000000   0.000000   0.000000
     44       0.501521   0.000000   0.000000   0.000000  -0.000000   0.000000
     45       0.000000   0.501521   0.000000   0.000000   0.000000   0.000000
     46       0.000000   0.000000   0.501521   0.000000   0.000000   0.000000
     47       0.000000   0.000000   0.000000   0.000000   0.000000   0.000000
     48       1.000000   0.000000   0.000000   0.000000   0.000000   0.000000
     49       0.000000   1.000000   0.000000   0.000000   0.000000   0.000000
     50       0.000000   0.000000   1.000000   0.000000   0.000000   0.000000
     51       0.000000   0.000000   0.000000   1.000000   0.000000   0.000000
     52       0.000000   0.000000   0.000000   0.000000   1.000000   0.000000
     53       0.000000   0.000000   0.000000   0.000000   0.000000   1.000000
     54       0.000000   0.000000   0.000000  -0.000000   0.000000   0.000000
     55       0.000000   0.000000   0.000000   0.000000   0.000000   0.000000
     56       0.000029   0.000058   0.000015  -0.000000   0.000000   0.000000
     57       0.003556   0.007047   0.001862  -0.000173   0.000539   0.000142
     58       0.126870  -0.000000   0.066441   0.018459  -0.000000   0.019404
     59       0.294561  -0.000000   0.154260   0.048055  -0.000000   0.050517
     60       0.000029   0.000058  -0.000015  -0.000000   0.000000  -0.000000
     61       0.003556   0.007047  -0.001862  -0.000173   0.000539  -0.000142
     62       0.126870  -0.000000  -0.066441   0.018459  -0.000000  -0.019404
     63       0.294561  -0.000000  -0.154260   0.048055  -0.000000  -0.050517
                 54         55         56         57         58         59    
      0       0.000000   0.000000   0.032609   0.092101   0.000000   0.000102
      1       0.000002   0.000000   0.273116   0.475730   0.000001   0.002185
      2      -0.000002   0.000000   0.195552   0.140914   0.000000   0.000563
      3      -0.000006   0.000000  -0.000000   0.000000  -0.000002  -0.003408
      4       0.000000   0.000000   0.312657   0.225299   0.000001   0.000901
      5       0.001567   0.000000   0.376677   0.704119   0.001018   0.019103
      6      -0.002386   0.000000   0.273060   0.309037   0.000729   0.008384
      7      -0.005878   0.000000  -0.000000  -0.000000  -0.004409  -0.050728
      8       0.000000   0.001154   0.436581   0.494102   0.001165   0.013405
      9      -0.000000   0.000000  -0.026438  -0.006313  -0.000000  -0.001189
     10       0.000001   0.000000   0.000000   0.000000  -0.000000  -0.000670
     11       0.000000  -0.000000   0.263218   0.062853   0.000000   0.000177
     12       0.000001   0.000000  -0.210422  -0.050246   0.000000   0.001886
     13       0.000000  -0.000000   0.000000   0.000000  -0.000000  -0.001072
     14       0.000000   0.000000   0.000000   0.000102   0.032609   0.092101
     15       0.000000   0.000000   0.000001   0.002185   0.273116   0.475730
     16       0.000000   0.000000   0.000000   0.000563   0.195552   0.140914
     17      -0.000000   0.000000   0.000002   0.003408   0.000000  -0.000000
     18       0.000000  -0.000000   0.000001   0.000901   0.312657   0.225299
     19       0.000000   0.000000   0.001018   0.019103   0.376677   0.704119
     20       0.000000   0.000000   0.000729   0.008384   0.273060   0.309037
     21       0.000000   0.000000   0.004409   0.050728   0.000000   0.000000
     22       0.000000   0.000000   0.001165   0.013405   0.436581   0.494102
     23       0.000000   0.000000  -0.000000  -0.001189  -0.026438  -0.006313
     24       0.000000   0.000000   0.000000   0.000670  -0.000000  -0.000000
     25       0.000000   0.000000   0.000000   0.000177   0.263218   0.062853
     26       0.133359   0.000000   0.000000   0.001886  -0.210422  -0.050246
     27       0.000000   0.133359   0.000000   0.001072  -0.000000  -0.000000
     28       0.000000   0.000000   0.000054   0.012265   0.000000   0.000012
     29       0.000000   0.000000   0.003344   0.084286   0.000000   0.000198
     30       0.000000   0.000000   0.005808   0.058647   0.000000   0.000127
     31      -0.000000   0.000000   0.000000   0.000000  -0.000000  -0.000252
     32       0.000000   0.000000   0.003041   0.030713   0.000000   0.000067
     33       0.000527   0.000000   0.051076   0.227108   0.000012   0.002742
     34       0.000000   0.000000   0.126870   0.294561   0.000029   0.003556
     35      -0.002403   0.000000   0.000000   0.000000  -0.000058  -0.007047
     36       0.000000   0.000307   0.066441   0.154260   0.000015   0.001862
     37      -0.000004   0.000000   0.018459   0.048055  -0.000000  -0.000173
     38       0.000000   0.000000   0.000000   0.000000  -0.000000  -0.000539
     39       0.000000   0.000000   0.019404   0.050517   0.000000   0.000142
     40       0.000007   0.000000  -0.005081  -0.013228   0.000000   0.000497
     41       0.000000  -0.000001   0.000000   0.000000  -0.000000  -0.000282
     42       0.000000   0.000000   0.000000   0.000012   0.000054   0.012265
     43       0.000000   0.000000   0.000000   0.000198   0.003344   0.084286
     44       0.000000   0.000000   0.000000   0.000127   0.005808   0.058647
     45      -0.000000   0.000000   0.000000   0.000252  -0.000000  -0.000000
     46       0.000000  -0.000000   0.000000   0.000067   0.003041   0.030713
     47       0.000000   0.000000   0.000012   0.002742   0.051076   0.227108
     48       0.000000   0.000000   0.000029   0.003556   0.126870   0.294561
     49       0.000000   0.000000   0.000058   0.007047  -0.000000  -0.000000
     50       0.000000   0.000000   0.000015   0.001862   0.066441   0.154260
     51      -0.000000   0.000000  -0.000000  -0.000173   0.018459   0.048055
     52       0.000000   0.000000   0.000000   0.000539  -0.000000  -0.000000
     53       0.000000   0.000000   0.000000   0.000142   0.019404   0.050517
     54       1.000000   0.000000   0.000000   0.000497  -0.005081  -0.013228
     55       0.000000   1.000000   0.000000   0.000282  -0.000000  -0.000000
     56       0.000000   0.000000   1.000000   0.658292   0.000001   0.002178
     57       0.000497   0.000282   0.658292   1.000000   0.002178   0.029376
     58      -0.005081  -0.000000   0.000001   0.002178   1.000000   0.658292
     59      -0.013228  -0.000000   0.002178   0.029376   0.658292   1.000000
     60       0.000000  -0.000000   0.013709   0.132497   0.000000   0.000446
     61       0.000497  -0.000282   0.132497   0.373307   0.000446   0.010966
     62      -0.005081   0.000000   0.000000   0.000446   0.013709   0.132497
     63      -0.013228   0.000000   0.000446   0.010966   0.132497   0.373307
                  60         61         62         63    
      0       0.032609   0.092101   0.000000   0.000102
      1       0.273116   0.475730   0.000001   0.002185
      2       0.195552   0.140914   0.000000   0.000563
      3      -0.000000   0.000000  -0.000002  -0.003408
      4      -0.312657  -0.225299  -0.000001  -0.000901
      5       0.376677   0.704119   0.001018   0.019103
      6       0.273060   0.309037   0.000729   0.008384
      7      -0.000000  -0.000000  -0.004409  -0.050728
      8      -0.436581  -0.494102  -0.001165  -0.013405
      9      -0.026438  -0.006313  -0.000000  -0.001189
     10       0.000000   0.000000  -0.000000  -0.000670
     11      -0.263218  -0.062853  -0.000000  -0.000177
     12      -0.210422  -0.050246   0.000000   0.001886
     13      -0.000000  -0.000000   0.000000   0.001072
     14       0.000000   0.000102   0.032609   0.092101
     15       0.000001   0.002185   0.273116   0.475730
     16       0.000000   0.000563   0.195552   0.140914
     17       0.000002   0.003408   0.000000  -0.000000
     18      -0.000001  -0.000901  -0.312657  -0.225299
     19       0.001018   0.019103   0.376677   0.704119
     20       0.000729   0.008384   0.273060   0.309037
     21       0.004409   0.050728   0.000000   0.000000
     22      -0.001165  -0.013405  -0.436581  -0.494102
     23      -0.000000  -0.001189  -0.026438  -0.006313
     24       0.000000   0.000670  -0.000000  -0.000000
     25      -0.000000  -0.000177  -0.263218  -0.062853
     26       0.000000   0.001886  -0.210422  -0.050246
     27      -0.000000  -0.001072   0.000000   0.000000
     28       0.000054   0.012265   0.000000   0.000012
     29       0.003344   0.084286   0.000000   0.000198
     30       0.005808   0.058647   0.000000   0.000127
     31       0.000000   0.000000  -0.000000  -0.000252
     32      -0.003041  -0.030713  -0.000000  -0.000067
     33       0.051076   0.227108   0.000012   0.002742
     34       0.126870   0.294561   0.000029   0.003556
     35       0.000000   0.000000  -0.000058  -0.007047
     36      -0.066441  -0.154260  -0.000015  -0.001862
     37       0.018459   0.048055  -0.000000  -0.000173
     38       0.000000   0.000000  -0.000000  -0.000539
     39      -0.019404  -0.050517  -0.000000  -0.000142
     40      -0.005081  -0.013228   0.000000   0.000497
     41      -0.000000  -0.000000   0.000000   0.000282
     42       0.000000   0.000012   0.000054   0.012265
     43       0.000000   0.000198   0.003344   0.084286
     44       0.000000   0.000127   0.005808   0.058647
     45       0.000000   0.000252  -0.000000  -0.000000
     46      -0.000000  -0.000067  -0.003041  -0.030713
     47       0.000012   0.002742   0.051076   0.227108
     48       0.000029   0.003556   0.126870   0.294561
     49       0.000058   0.007047  -0.000000  -0.000000
     50      -0.000015  -0.001862  -0.066441  -0.154260
     51      -0.000000  -0.000173   0.018459   0.048055
     52       0.000000   0.000539  -0.000000  -0.000000
     53      -0.000000  -0.000142  -0.019404  -0.050517
     54       0.000000   0.000497  -0.005081  -0.013228
     55      -0.000000  -0.000282   0.000000   0.000000
     56       0.013709   0.132497   0.000000   0.000446
     57       0.132497   0.373307   0.000446   0.010966
     58       0.000000   0.000446   0.013709   0.132497
     59       0.000446   0.010966   0.132497   0.373307
     60       1.000000   0.658292   0.000001   0.002178
     61       0.658292   1.000000   0.002178   0.029376
     62       0.000001   0.002178   1.000000   0.658292
     63       0.002178   0.029376   0.658292   1.000000
-------------------
DFT GRID GENERATION
-------------------

General Integration Accuracy     IntAcc      ...  4.340
Radial Grid Type                 RadialGrid  ... Gauss-Chebyshev
Angular Grid (max. acc.)         AngularGrid ... Lebedev-110
Angular grid pruning method      GridPruning ... 3 (G Style)
Weight generation scheme         WeightScheme... Becke
Basis function cutoff            BFCut       ...    1.0000e-10
Integration weight cutoff        WCut        ...    1.0000e-14
Grids for H and He will be reduced by one unit

# of grid points (after initial pruning)     ...   9920 (   0.0 sec)
# of grid points (after weights+screening)   ...   9600 (   0.0 sec)
nearest neighbour list constructed           ...    0.0 sec
Grid point re-assignment to atoms done       ...    0.0 sec
Grid point division into batches done        ...    0.0 sec
Reduced shell lists constructed in    0.1 sec

Total number of grid points                  ...     9600
Total number of batches                      ...      152
Average number of points per batch           ...       63
Average number of grid points per atom       ...     1200
Average number of shells per batch           ...    22.73 (71.04%)
Average number of basis functions per batch  ...    45.56 (71.18%)
Average number of large shells per batch     ...    18.53 (81.51%)
Average number of large basis fcns per batch ...    37.03 (81.28%)
Maximum spatial batch extension              ...  20.26, 18.31, 18.78 au
Average spatial batch extension              ...   4.89,  4.18,  4.48 au

Time for grid setup =    0.100 sec

------------------------------
INITIAL GUESS: MODEL POTENTIAL
------------------------------
Loading Hartree-Fock densities                     ... done
Calculating cut-offs                               ... done
Setting up the integral package                    ... done
Initializing the effective Hamiltonian             ... done
Starting the Coulomb interaction                   ... done (   0.0 sec)
Reading the grid                                   ... done
Mapping shells                                     ... done
Starting the XC term evaluation                    ... done (   0.1 sec)
  promolecular density results
     # of electrons  =     31.996886583
     EX              =    -27.631321408
     EC              =     -1.025310036
     EX+EC           =    -28.656631444
Transforming the Hamiltonian                       ... done (   0.0 sec)
Diagonalizing the Hamiltonian                      ... done (   0.0 sec)
Back transforming the eigenvectors                 ... done (   0.0 sec)
Now organizing SCF variables                       ... done
                      ------------------
                      INITIAL GUESS DONE (   0.3 sec)
                      ------------------
--------------
SCF ITERATIONS
--------------
               ***  Starting incremental Fock matrix formation  ***

                         ----------------------------
                         !        ITERATION     0   !
                         ----------------------------
   Total Energy        :    -228.579313492668 Eh
   Energy Change       :    -228.579313492668 Eh
   MAX-DP              :       0.101603261540
   RMS-DP              :       0.006177263800
   Actual Damping      :       0.7000
   Actual Level Shift  :       0.2500 Eh
   Int. Num. El.       :    31.99963543 (UP=   15.99981771 DN=   15.99981771)
   Exchange            :   -28.66599789
   Correlation         :    -1.05072059


                         ----------------------------
                         !        ITERATION     1   !
                         ----------------------------
   Total Energy        :    -228.657531735770 Eh
   Energy Change       :      -0.078218243102 Eh
   MAX-DP              :       0.053334177578
   RMS-DP              :       0.003549948755
   Actual Damping      :       0.7000
   Actual Level Shift  :       0.2500 Eh
   Int. Num. El.       :    31.99888108 (UP=   15.99944054 DN=   15.99944054)
   Exchange            :   -28.34292893
   Correlation         :    -1.04577401

                               ***Turning on DIIS***

                         ----------------------------
                         !        ITERATION     2   !
                         ----------------------------
   Total Energy        :    -228.672375761565 Eh
   Energy Change       :      -0.014844025795 Eh
   MAX-DP              :       0.056120889312
   RMS-DP              :       0.003870047188
   Actual Damping      :       0.0000
   Actual Level Shift  :       0.2500 Eh
   Int. Num. El.       :    31.99867288 (UP=   15.99933644 DN=   15.99933644)
   Exchange            :   -28.18393072
   Correlation         :    -1.04269957
   DIIS-Error          :       0.035150505638


                         ----------------------------
                         !        ITERATION     3   !
                         ----------------------------
   Total Energy        :    -228.719500126768 Eh
   Energy Change       :      -0.047124365202 Eh
   MAX-DP              :       0.040284483298
   RMS-DP              :       0.002742963068
   Actual Damping      :       0.0000
   Actual Level Shift  :       0.2500 Eh
   Int. Num. El.       :    31.99918774 (UP=   15.99959387 DN=   15.99959387)
   Exchange            :   -28.08967549
   Correlation         :    -1.03873858
   DIIS-Error          :       0.030353681426
   DIIS coefficients:
      0.35106   0.64894


                         ----------------------------
                         !        ITERATION     4   !
                         ----------------------------
   Total Energy        :    -228.721589796156 Eh
   Energy Change       :      -0.002089669388 Eh
   MAX-DP              :       0.011485341799
   RMS-DP              :       0.000650449352
   Actual Damping      :       0.0000
   Actual Level Shift  :       0.2500 Eh
   Int. Num. El.       :    31.99933295 (UP=   15.99966648 DN=   15.99966648)
   Exchange            :   -28.19690592
   Correlation         :    -1.04164849
   DIIS-Error          :       0.032502557845
   DIIS coefficients:
      0.29853   0.26946   0.43200


                         ----------------------------
                         !        ITERATION     5   !
                         ----------------------------
   Total Energy        :    -228.723374419596 Eh
   Energy Change       :      -0.001784623440 Eh
   MAX-DP              :       0.003132235696
   RMS-DP              :       0.000203611835
   Actual Damping      :       0.0000
   Actual Level Shift  :       0.2500 Eh
   Int. Num. El.       :    31.99920644 (UP=   15.99960322 DN=   15.99960322)
   Exchange            :   -28.16943562
   Correlation         :    -1.04169423
   DIIS-Error          :       0.011157126975
   DIIS coefficients:
      0.09705   0.10446  -0.13749   0.93597


                         ----------------------------
                         !        ITERATION     6   !
                         ----------------------------
   Total Energy        :    -228.723553226400 Eh
   Energy Change       :      -0.000178806804 Eh
   MAX-DP              :       0.001399638150
   RMS-DP              :       0.000076605050
   Actual Damping      :       0.0000
   Actual Level Shift  :       0.2500 Eh
   Int. Num. El.       :    31.99916845 (UP=   15.99958423 DN=   15.99958423)
   Exchange            :   -28.16435479
   Correlation         :    -1.04164030
   DIIS-Error          :       0.003795069988
   DIIS coefficients:
      0.01549   0.03471  -0.03964  -0.11620   1.10564

                      *** Initiating the SOSCF procedure ***
                           *** Shutting down DIIS ***
                      *** Re-Reading the Fockian *** 
                      *** Removing any level shift *** 

                         ----------------------------
                         !        ITERATION     7   !
                         ----------------------------
   Total Energy        :    -228.723573940445 Eh
   Energy Change       :      -0.000020714045 Eh
   MAX-DP              :       0.000449435798
   RMS-DP              :       0.000027584328
   Orbital gradient    :       0.000250325368
   Orbital Rotation    :       0.000250325368
   Actual Damping      :       0.0000
   Int. Num. El.       :    31.99915764 (UP=   15.99957882 DN=   15.99957882)
   Exchange            :   -28.16148771
   Correlation         :    -1.04159357

               *** Restarting incremental Fock matrix formation ***

                         ----------------------------
                         !        ITERATION     8   !
                         ----------------------------
   Total Energy        :    -228.723575969208 Eh
   Energy Change       :      -0.000002028764 Eh
   MAX-DP              :       0.000763014866
   RMS-DP              :       0.000041813314
   Orbital gradient    :       0.000205089673
   Orbital Rotation    :       0.000720256499
   Actual Damping      :       0.0000
   Int. Num. El.       :    31.99915535 (UP=   15.99957768 DN=   15.99957768)
   Exchange            :   -28.16065348
   Correlation         :    -1.04157244


                         ----------------------------
                         !        ITERATION     9   !
                         ----------------------------
   Total Energy        :    -228.723574665116 Eh
   Energy Change       :       0.000001304092 Eh
[...]
 0 C  s               1.0       1.9       0.1       0.1       0.0       0.1
 0 C  pz              0.1       0.1       1.7       1.9       0.0       0.0
 0 C  px              0.0       0.0       0.0       0.0       1.3       1.5
 0 C  dz2             3.1       2.8      32.0      32.1       0.0       0.0
 0 C  dxz             0.0       0.0       0.0       0.0      20.7      20.8
 0 C  dx2y2          27.3      26.4       2.4       2.4       0.0       0.0
 1 C  s               1.0       1.9       0.1       0.1       0.0       0.1
 1 C  pz              0.1       0.1       1.7       1.9       0.0       0.0
 1 C  px              0.0       0.0       0.0       0.0       1.3       1.5
 1 C  dz2             3.1       2.8      32.0      32.1       0.0       0.0
 1 C  dxz             0.0       0.0       0.0       0.0      20.7      20.8
 1 C  dx2y2          27.3      26.4       2.4       2.4       0.0       0.0
 2 O  s               0.2       0.3       4.5       4.3       0.0       0.0
 2 O  pz              0.4       0.3       6.1       6.0       0.0       0.0
 2 O  px              0.0       0.0       0.0       0.0       1.4       1.7
 2 O  dz2             0.8       1.1       1.5       1.5       0.0       0.0
 2 O  dxz             0.0       0.0       0.0       0.0      26.6      25.8
 2 O  dx2y2          13.3      12.6       0.7       0.5       0.0       0.0
 3 O  s               0.2       0.3       4.5       4.3       0.0       0.0
 3 O  pz              0.4       0.3       6.1       6.0       0.0       0.0
 3 O  px              0.0       0.0       0.0       0.0       1.4       1.7
 3 O  dz2             0.8       1.1       1.5       1.5       0.0       0.0
 3 O  dxz             0.0       0.0       0.0       0.0      26.6      25.8
 3 O  dx2y2          13.3      12.6       0.7       0.5       0.0       0.0
 4 H  s               1.9       2.2       0.5       0.5       0.0       0.0
 5 H  s               1.9       2.2       0.5       0.5       0.0       0.0
 6 H  s               1.9       2.2       0.5       0.5       0.0       0.0
 7 H  s               1.9       2.2       0.5       0.5       0.0       0.0

                     60        61        62        63   
                   2.59524   2.59892   2.85085   2.86855
                   0.00000   0.00000   0.00000   0.00000
                  --------  --------  --------  --------
 0 C  s               0.0       0.0       6.7       6.6
 0 C  pz              0.0       0.0       5.5       5.5
 0 C  py              0.3       0.3       0.0       0.0
 0 C  dz2             0.0       0.0       1.5       1.5
 0 C  dyz            26.0      26.2       0.0       0.0
 1 C  s               0.0       0.0       6.7       6.6
 1 C  pz              0.0       0.0       5.5       5.5
 1 C  py              0.3       0.3       0.0       0.0
 1 C  dz2             0.0       0.0       1.5       1.5
 1 C  dyz            26.0      26.2       0.0       0.0
 2 O  s               0.0       0.0       7.9       8.4
 2 O  pz              0.0       0.0       3.7       3.7
 2 O  py              1.0       1.0       0.0       0.0
 2 O  dz2             0.0       0.0      24.6      24.1
 2 O  dyz            20.0      19.7       0.0       0.0
 3 O  s               0.0       0.0       7.9       8.4
 3 O  pz              0.0       0.0       3.7       3.7
 3 O  py              1.0       1.0       0.0       0.0
 3 O  dz2             0.0       0.0      24.6      24.1
 3 O  dyz            20.0      19.7       0.0       0.0
 4 H  s               1.3       1.4       0.0       0.0
 5 H  s               1.3       1.4       0.0       0.0
 6 H  s               1.3       1.4       0.0       0.0
 7 H  s               1.3       1.4       0.0       0.0


                      *****************************
                      * MAYER POPULATION ANALYSIS *
                      *****************************

  NA   - Mulliken gross atomic population
  ZA   - Total nuclear charge
  QA   - Mulliken gross atomic charge
  VA   - Mayer's total valence
  BVA  - Mayer's bonded valence
  FA   - Mayer's free valence

  ATOM       NA         ZA         QA         VA         BVA        FA
  0 C      5.9753     6.0000     0.0247     3.8099     3.8099     0.0000
  1 C      5.9753     6.0000     0.0247     3.8099     3.8099    -0.0000
  2 O      8.2637     8.0000    -0.2637     2.1622     2.1622     0.0000
  3 O      8.2637     8.0000    -0.2637     2.1622     2.1622    -0.0000
  4 H      0.8805     1.0000     0.1195     0.9163     0.9163     0.0000
  5 H      0.8805     1.0000     0.1195     0.9163     0.9163    -0.0000
  6 H      0.8805     1.0000     0.1195     0.9163     0.9163     0.0000
  7 H      0.8805     1.0000     0.1195     0.9163     0.9163    -0.0000

  Mayer bond orders larger than 0.1
B(  0-C ,  2-O ) :   2.0744 B(  0-C ,  4-H ) :   0.8637 B(  0-C ,  6-H ) :   0.8637 
B(  1-C ,  3-O ) :   2.0744 B(  1-C ,  5-H ) :   0.8637 B(  1-C ,  7-H ) :   0.8637 


-------
TIMINGS
-------

Total SCF time: 0 days 0 hours 0 min 4 sec 

Total time                  ....       4.875 sec
Sum of individual times     ....       4.711 sec  ( 96.6%)

Fock matrix formation       ....       3.820 sec  ( 78.4%)
  Split-RI-J                ....       2.166 sec  ( 56.7% of F)
  XC integration            ....       1.477 sec  ( 38.7% of F)
    Basis function eval.    ....       0.589 sec  ( 39.9% of XC)
    Density eval.           ....       0.236 sec  ( 16.0% of XC)
    XC-Functional eval.     ....       0.238 sec  ( 16.1% of XC)
    XC-Potential eval.      ....       0.257 sec  ( 17.4% of XC)
Diagonalization             ....       0.012 sec  (  0.2%)
Density matrix formation    ....       0.001 sec  (  0.0%)
Population analysis         ....       0.018 sec  (  0.4%)
Initial guess               ....       0.230 sec  (  4.7%)
Orbital Transformation      ....       0.000 sec  (  0.0%)
Orbital Orthonormalization  ....       0.000 sec  (  0.0%)
DIIS solution               ....       0.018 sec  (  0.4%)
SOSCF solution              ....       0.004 sec  (  0.1%)
Grid generation             ....       0.609 sec  ( 12.5%)
------------------------------------------------------------------------------
                        ORCA TD-DFT/TDA CALCULATION
------------------------------------------------------------------------------

Input orbitals are from        ... orca.gbw
CI-vector output               ... orca.cis
Tamm-Dancoff approximation     ... operative
CIS-Integral strategy          ... AO-integrals
Integral handling              ... AO integral Direct
Max. core memory used          ... 4000 MB
Reference state                ... RHF
Generation of triplets         ... off
Number of operators            ... 1
Orbital ranges used for CIS calculation:
 Operator 0:  Orbitals   4... 15  to  16... 63
XAS localization array:
 Operator 0:  Orbitals  -1... -1
-------------------
XC-INTEGRATION GRID
-------------------

General Integration Accuracy     IntAcc      ...  3.670
Radial Grid Type                 RadialGrid  ... Gauss-Chebyshev
Angular Grid (max. acc.)         AngularGrid ... Lebedev-50
Angular grid pruning method      GridPruning ... 3 (G Style)
Weight generation scheme         WeightScheme... Becke
Basis function cutoff            BFCut       ...    1.0000e-10
Integration weight cutoff        WCut        ...    1.0000e-14
Grids for H and He will be reduced by one unit

# of grid points (after initial pruning)     ...   4616 (   0.0 sec)
# of grid points (after weights+screening)   ...   4474 (   0.0 sec)
nearest neighbour list constructed           ...    0.0 sec
Grid point re-assignment to atoms done       ...    0.0 sec
Grid point division into batches done        ...    0.0 sec
Reduced shell lists constructed in    0.0 sec

Total number of grid points                  ...     4474
Total number of batches                      ...       74
Average number of points per batch           ...       60
Average number of grid points per atom       ...      559
Average number of shells per batch           ...    24.20 (75.63%)
Average number of basis functions per batch  ...    49.00 (76.56%)
Average number of large shells per batch     ...    19.99 (82.59%)
Average number of large basis fcns per batch ...    39.51 (80.63%)
Maximum spatial batch extension              ...  18.60, 18.51, 18.27 au
Average spatial batch extension              ...   6.23,  5.07,  5.21 au


---------------
TD-DFT XC SETUP
---------------

DFT calculation                         ... on
Name of the grid file                   ... orca.grid_cis.tmp
RI-approximation                        ... on
Aux-basis dimension                     ... 240
Exchange functional (SCF)               ... PBE
Exchange functional (TD-DFT)            ... PBE
   PBE kappa parameter  XKappa (SCF)    ...  0.804000
   PBE kappa parameter  XKappa (TD-DFT) ...  0.804000
   PBE mue parameter   XMuePBE (SCF)    ...  0.219520
   PBE mue parameter   XMuePBE (TD-DFT) ...  0.219520
Correlation functional (SCF)            ... PBE
Correlation functional (TD-DFT)         ... PBE
   PBE beta parameter CBetaPBE (SCF)    ...  0.066725
   PBE beta parameter CBetaPBE (TD-DFT) ...  0.066725
 LDA part of GGA corr.  LDAOpt (SCF)    ... PW91-LDA
 LDA part of GGA corr.  LDAOpt (TD-DFT) ... PW91-LDA

Building densities             ... done
Calculating rho(r) on the grid ... done
Building xc-kernel on the grid ... done
                    *** TD-DFT CALCULATION INITIALIZED ***


------------------------
DAVIDSON-DIAGONALIZATION
------------------------

Dimension of the eigenvalue problem            ...    576
Number of roots to be determined               ...     10
Maximum size of the expansion space            ...    100
Convergence tolerance for the residual         ...    1.000e-06
Convergence tolerance for the energies         ...    1.000e-06
Orthogonality tolerance                        ...    1.000e-14
Level Shift                                    ...    0.000e+00
Constructing the preconditioner                ... o.k.
Building the initial guess                     ... o.k.
Number of trial vectors determined             ...    100


                       ****Iteration    0****

   Memory handling for direct AO based CIS:
   Memory per vector needed      ...     1 MB
   Memory needed                 ...     4 MB
   Memory available              ...  4000 MB
   Number of vectors per batch   ...  4000
   Number of batches             ...     1
   Time for densities:     0.005
   Time for RI-J (Direct):     1.196
   Time for XC-Integration:     0.613
   Time for Sigma-Completion:     0.086
   Size of expansion space: 30
   Lowest Energy          :     0.131920076377
   Maximum Energy change  :     0.312321749849 (vector 9)
   Maximum residual norm  :     0.000878991374

                       ****Iteration    1****
   Time for densities:     0.002
   Time for RI-J (Direct):     0.493
   Time for XC-Integration:     0.222
   Time for Sigma-Completion:     0.026
   Size of expansion space: 40
   Lowest Energy          :     0.131820025992
   Maximum Energy change  :     0.000817635476 (vector 4)
   Maximum residual norm  :     0.000013518252

                       ****Iteration    2****
   Time for densities:     0.002
   Time for RI-J (Direct):     0.526
   Time for XC-Integration:     0.218
   Time for Sigma-Completion:     0.028
   Size of expansion space: 50
   Lowest Energy          :     0.131819989903
   Maximum Energy change  :     0.000011767018 (vector 9)
   Maximum residual norm  :     0.000000293284

      *** CONVERGENCE OF RESIDUAL NORM REACHED ***

Storing the converged CI vectors               ... orca.cis1

                 *** DAVIDSON DONE ***

Total time for solving the CIS problem:     4.017sec

------------------------------------
TD-DFT/TDA EXCITED STATES (SINGLETS)
------------------------------------

the weight of the individual excitations are printed if larger than 0.01

STATE  1:  E=   0.131820 au      3.587 eV    28931.1 cm**-1
    14a ->  17a  :     0.045511 (c=  0.21333402)
    15a ->  16a  :     0.954423 (c=  0.97694580)

STATE  2:  E=   0.133638 au      3.636 eV    29330.0 cm**-1
    14a ->  16a  :     0.934045 (c=  0.96646013)
    15a ->  17a  :     0.065912 (c=  0.25673287)

STATE  3:  E=   0.156443 au      4.257 eV    34335.2 cm**-1
    14a ->  16a  :     0.065873 (c= -0.25665778)
    15a ->  17a  :     0.934006 (c=  0.96644009)

STATE  4:  E=   0.157919 au      4.297 eV    34659.3 cm**-1
    14a ->  17a  :     0.954408 (c=  0.97693816)
    15a ->  16a  :     0.045476 (c= -0.21325113)

STATE  5:  E=   0.287394 au      7.820 eV    63075.7 cm**-1
    12a ->  17a  :     0.368950 (c=  0.60741235)
    13a ->  16a  :     0.623192 (c=  0.78942487)

STATE  6:  E=   0.288601 au      7.853 eV    63340.5 cm**-1
    12a ->  16a  :     0.536575 (c=  0.73251249)
    13a ->  17a  :     0.461622 (c=  0.67942757)

STATE  7:  E=   0.291934 au      7.944 eV    64072.1 cm**-1
    14a ->  19a  :     0.075015 (c= -0.27388939)
    15a ->  18a  :     0.923110 (c= -0.96078594)

STATE  8:  E=   0.294404 au      8.011 eV    64614.1 cm**-1
    14a ->  18a  :     0.851503 (c=  0.92276910)
    15a ->  19a  :     0.146713 (c=  0.38303158)

STATE  9:  E=   0.310817 au      8.458 eV    68216.3 cm**-1
    10a ->  17a  :     0.166358 (c=  0.40787018)
    11a ->  16a  :     0.827040 (c= -0.90941722)

STATE 10:  E=   0.311771 au      8.484 eV    68425.8 cm**-1
    10a ->  16a  :     0.795299 (c=  0.89179546)
    11a ->  17a  :     0.199355 (c= -0.44649205)


-----------------------------
TD-DFT/TDA-EXCITATION SPECTRA
-----------------------------

Center of mass = (  0.0000,  0.0000, -0.0032)
Calculating the Dipole integrals                  ... done
Transforming integrals                            ... done
Calculating the Linear Momentum integrals         ... done
Transforming integrals                            ... done
Calculating angular momentum integrals            ... done
Transforming integrals                            ... done

-----------------------------------------------------------------------------
         ABSORPTION SPECTRUM VIA TRANSITION ELECTRIC DIPOLE MOMENTS
-----------------------------------------------------------------------------
State   Energy  Wavelength   fosc         T2         TX        TY        TZ  
        (cm-1)    (nm)                  (au**2)     (au)      (au)      (au) 
-----------------------------------------------------------------------------
   1   28931.1    345.6   0.000000000   0.00000  -0.00000   0.00000   0.00000
   2   29330.0    340.9   0.000007129   0.00008   0.00000  -0.00895  -0.00000
   3   34335.2    291.2   0.000038785   0.00037   0.00000  -0.01928  -0.00000
   4   34659.3    288.5   0.000000000   0.00000  -0.00000   0.00000  -0.00000
   5   63075.7    158.5   0.011856847   0.06188   0.24877  -0.00000  -0.00000
   6   63340.5    157.9   0.000543164   0.00282   0.00000  -0.00000   0.05313
   7   64072.1    156.1   0.000000000   0.00000   0.00000   0.00000  -0.00000
   8   64614.1    154.8   0.045845931   0.23359   0.00000   0.48331  -0.00000
   9   68216.3    146.6   0.000314750   0.00152  -0.03897   0.00000   0.00000
  10   68425.8    146.1   0.000025652   0.00012  -0.00000   0.00000  -0.01111

-----------------------------------------------------------------------------
         ABSORPTION SPECTRUM VIA TRANSITION VELOCITY DIPOLE MOMENTS
-----------------------------------------------------------------------------
State   Energy  Wavelength   fosc         P2         PX        PY        PZ  
        (cm-1)    (nm)                  (au**2)     (au)      (au)      (au) 
-----------------------------------------------------------------------------
   1   28931.1    345.6   0.000000000   0.00000  -0.00000  -0.00000  -0.00000
   2   29330.0    340.9   0.000022517   0.00000  -0.00000   0.00212   0.00000
   3   34335.2    291.2   0.000178726   0.00004  -0.00000   0.00648   0.00000
   4   34659.3    288.5   0.000000000   0.00000  -0.00000  -0.00000   0.00000
   5   63075.7    158.5   0.008957547   0.00386  -0.06214   0.00000  -0.00000
   6   63340.5    157.9   0.000098292   0.00004  -0.00000  -0.00000   0.00652
   7   64072.1    156.1   0.000000000   0.00000  -0.00000  -0.00000   0.00000
   8   64614.1    154.8   0.015140884   0.00669  -0.00000  -0.08177   0.00000
   9   68216.3    146.6   0.000015434   0.00001  -0.00268   0.00000  -0.00000
  10   68425.8    146.1   0.000027946   0.00001  -0.00000  -0.00000  -0.00362

-------------------------------------------------------------------
                             CD SPECTRUM
-------------------------------------------------------------------
State   Energy Wavelength       R         MX        MY        MZ   
        (cm-1)   (nm)       (1e40*cgs)   (au)      (au)      (au)  
-------------------------------------------------------------------
   1   28931.1    345.6      0.00000  -0.00000  -0.00000   0.47981
   2   29330.0    340.9     -0.00000   0.00519   0.00000   0.00000
   3   34335.2    291.2      0.00000   0.00612   0.00000   0.00000
   4   34659.3    288.5      0.00000  -0.00000  -0.00000  -0.67657
   5   63075.7    158.5     -0.00000   0.00000   0.10048  -0.00000
   6   63340.5    157.9      0.00000   0.00000   0.00000   0.00000
   7   64072.1    156.1     -0.00000   0.00000   0.00000   0.22475
   8   64614.1    154.8      0.00000  -0.20429   0.00000  -0.00000
   9   68216.3    146.6      0.00000  -0.00000   0.40081  -0.00000
  10   68425.8    146.1     -0.00000  -0.00000   0.00000   0.00000

Total run time:        4.298 sec

           *** ORCA-CIS/TD-DFT FINISHED WITHOUT ERROR ***

-----------------------
CIS/TD-DFT TOTAL ENERGY
-----------------------

    E(SCF)  =   -228.723717938 Eh
    DE(CIS) =      0.131819990 Eh (Root  1)
    ----------------------------- ---------
    E(tot)  =   -228.591897948 Eh


-------------------------   --------------------
FINAL SINGLE POINT ENERGY      -228.591897947789
-------------------------   --------------------


                            ***************************************
                            *     ORCA property calculations      *
                            ***************************************

                                    ---------------------
                                    Active property flags
                                    ---------------------
   (+) Dipole Moment


------------------------------------------------------------------------------
                       ORCA ELECTRIC PROPERTIES CALCULATION
------------------------------------------------------------------------------

Dipole Moment Calculation                       ... on
Quadrupole Moment Calculation                   ... off
Polarizability Calculation                      ... off
GBWName                                         ... orca.gbw
Electron density file                           ... orca.scfp.tmp
The origin for moment calculation is the CENTER OF MASS  = ( 0.000000,  0.000000 -0.003249)

-------------
DIPOLE MOMENT
-------------
                                X             Y             Z
Electronic contribution:      0.00000      -0.00000      -2.91406
Nuclear contribution   :      0.00000       0.00000       4.38230
                        -----------------------------------------
Total Dipole Moment    :      0.00000      -0.00000       1.46824
                        -----------------------------------------
Magnitude (a.u.)       :      1.46824
Magnitude (Debye)      :      3.73196


Timings for individual modules:

Sum of individual times         ...       14.317 sec (=   0.239 min)
GTO integral calculation        ...        1.527 sec (=   0.025 min)  10.7 %
SCF iterations                  ...        6.757 sec (=   0.113 min)  47.2 %
CIS module                      ...        6.033 sec (=   0.101 min)  42.1 %
                             ****ORCA TERMINATED NORMALLY****
TOTAL RUN TIME: 0 days 0 hours 0 minutes 15 seconds 990 msec
