[Molden Format]
[Atoms] AU
  C     1    6     5.7995162600   -0.3209945300    0.0000000000        
  C     2    6    -5.7995162600    0.3209945300    0.0000000000        
  C     3    6     3.5209581700    0.8029937200    0.0000000000        
  C     4    6    -3.5209581700   -0.8029937200    0.0000000000        
  C     5    6     1.1464684400   -0.5634142300    0.0000000000        
  C     6    6    -1.1464684400    0.5634142300    0.0000000000        
  H     7    1     7.5370587600    0.7652237500    0.0000000000        
  H     8    1    -7.5370587600   -0.7652237500    0.0000000000        
  H     9    1     5.9831805700   -2.3656969700    0.0000000000        
  H    10    1    -5.9831805700    2.3656969700    0.0000000000        
  H    11    1     3.4094927200    2.8597772400    0.0000000000        
  H    12    1    -3.4094927200   -2.8597772400    0.0000000000        
  H    13    1     1.2512064300   -2.6231306100    0.0000000000        
  H    14    1    -1.2512064300    2.6231306100    0.0000000000        
[5D]
[7F]
[GTO]
  1  0
   s     6 1.00
  0.304752D+04  0.183470D-02
  0.457370D+03  0.140373D-01
  0.103949D+03  0.688426D-01
  0.292102D+02  0.232184D+00
  0.928666D+01  0.467941D+00
  0.316393D+01  0.362312D+00
   s     3 1.00
  0.786827D+01 -0.119332D+00
  0.188129D+01 -0.160854D+00
  0.544249D+00  0.114346D+01
   s     1 1.00
  0.168714D+00  0.100000D+01
   p     3 1.00
  0.786827D+01  0.689991D-01
  0.188129D+01  0.316424D+00
  0.544249D+00  0.744308D+00
   p     1 1.00
  0.168714D+00  0.100000D+01
   d     1 1.00
  0.800000D+00  0.100000D+01
  
  2  0
   s     6 1.00
  0.304752D+04  0.183470D-02
  0.457370D+03  0.140373D-01
  0.103949D+03  0.688426D-01
  0.292102D+02  0.232184D+00
  0.928666D+01  0.467941D+00
  0.316393D+01  0.362312D+00
   s     3 1.00
  0.786827D+01 -0.119332D+00
  0.188129D+01 -0.160854D+00
  0.544249D+00  0.114346D+01
   s     1 1.00
  0.168714D+00  0.100000D+01
   p     3 1.00
  0.786827D+01  0.689991D-01
  0.188129D+01  0.316424D+00
  0.544249D+00  0.744308D+00
   p     1 1.00
  0.168714D+00  0.100000D+01
   d     1 1.00
  0.800000D+00  0.100000D+01
  
  3  0
   s     6 1.00
  0.304752D+04  0.183470D-02
  0.457370D+03  0.140373D-01
  0.103949D+03  0.688426D-01
  0.292102D+02  0.232184D+00
  0.928666D+01  0.467941D+00
  0.316393D+01  0.362312D+00
   s     3 1.00
  0.786827D+01 -0.119332D+00
  0.188129D+01 -0.160854D+00
  0.544249D+00  0.114346D+01
   s     1 1.00
  0.168714D+00  0.100000D+01
   p     3 1.00
  0.786827D+01  0.689991D-01
  0.188129D+01  0.316424D+00
  0.544249D+00  0.744308D+00
   p     1 1.00
  0.168714D+00  0.100000D+01
   d     1 1.00
  0.800000D+00  0.100000D+01
  
  4  0
   s     6 1.00
  0.304752D+04  0.183470D-02
  0.457370D+03  0.140373D-01
  0.103949D+03  0.688426D-01
  0.292102D+02  0.232184D+00
  0.928666D+01  0.467941D+00
  0.316393D+01  0.362312D+00
   s     3 1.00
  0.786827D+01 -0.119332D+00
  0.188129D+01 -0.160854D+00
  0.544249D+00  0.114346D+01
   s     1 1.00
  0.168714D+00  0.100000D+01
   p     3 1.00
  0.786827D+01  0.689991D-01
  0.188129D+01  0.316424D+00
  0.544249D+00  0.744308D+00
   p     1 1.00
  0.168714D+00  0.100000D+01
   d     1 1.00
  0.800000D+00  0.100000D+01
  
  5  0
   s     6 1.00
  0.304752D+04  0.183470D-02
  0.457370D+03  0.140373D-01
  0.103949D+03  0.688426D-01
  0.292102D+02  0.232184D+00
  0.928666D+01  0.467941D+00
  0.316393D+01  0.362312D+00
   s     3 1.00
  0.786827D+01 -0.119332D+00
  0.188129D+01 -0.160854D+00
  0.544249D+00  0.114346D+01
   s     1 1.00
  0.168714D+00  0.100000D+01
   p     3 1.00
  0.786827D+01  0.689991D-01
  0.188129D+01  0.316424D+00
  0.544249D+00  0.744308D+00
   p     1 1.00
  0.168714D+00  0.100000D+01
   d     1 1.00
  0.800000D+00  0.100000D+01
  
  6  0
   s     6 1.00
  0.304752D+04  0.183470D-02
  0.457370D+03  0.140373D-01
  0.103949D+03  0.688426D-01
  0.292102D+02  0.232184D+00
  0.928666D+01  0.467941D+00
  0.316393D+01  0.362312D+00
   s     3 1.00
  0.786827D+01 -0.119332D+00
  0.188129D+01 -0.160854D+00
  0.544249D+00  0.114346D+01
   s     1 1.00
  0.168714D+00  0.100000D+01
   p     3 1.00
  0.786827D+01  0.689991D-01
  0.188129D+01  0.316424D+00
  0.544249D+00  0.744308D+00
   p     1 1.00
  0.168714D+00  0.100000D+01
   d     1 1.00
  0.800000D+00  0.100000D+01
  
  7  0
   s     3 1.00
  0.187311D+02  0.334946D-01
  0.282539D+01  0.234727D+00
  0.640122D+00  0.813757D+00
   s     1 1.00
  0.161278D+00  0.100000D+01
  
  8  0
   s     3 1.00
  0.187311D+02  0.334946D-01
  0.282539D+01  0.234727D+00
  0.640122D+00  0.813757D+00
   s     1 1.00
  0.161278D+00  0.100000D+01
  
  9  0
   s     3 1.00
  0.187311D+02  0.334946D-01
  0.282539D+01  0.234727D+00
  0.640122D+00  0.813757D+00
   s     1 1.00
  0.161278D+00  0.100000D+01
  
 10  0
   s     3 1.00
  0.187311D+02  0.334946D-01
  0.282539D+01  0.234727D+00
  0.640122D+00  0.813757D+00
   s     1 1.00
  0.161278D+00  0.100000D+01
  
 11  0
   s     3 1.00
  0.187311D+02  0.334946D-01
  0.282539D+01  0.234727D+00
  0.640122D+00  0.813757D+00
   s     1 1.00
  0.161278D+00  0.100000D+01
  
 12  0
   s     3 1.00
  0.187311D+02  0.334946D-01
  0.282539D+01  0.234727D+00
  0.640122D+00  0.813757D+00
   s     1 1.00
  0.161278D+00  0.100000D+01
  
 13  0
   s     3 1.00
  0.187311D+02  0.334946D-01
  0.282539D+01  0.234727D+00
  0.640122D+00  0.813757D+00
   s     1 1.00
  0.161278D+00  0.100000D+01
  
 14  0
   s     3 1.00
  0.187311D+02  0.334946D-01
  0.282539D+01  0.234727D+00
  0.640122D+00  0.813757D+00
   s     1 1.00
  0.161278D+00  0.100000D+01
  
[MO]
 Sym= __1_Ag_
 Ene=   1.00000000000000     
 Spin= Alpha
 Occup=    1.00000000000000     
                     1 -3.969111277977362E-002
                     2 -3.295976050289245E-004
                     3 -3.190698512777290E-003
                     4 -2.962835979853911E-004
                     5  1.255903109809582E-004
                     6  0.000000000000000E+000
                     7  1.634725103899712E-003
                     8 -2.584414257163264E-004
                     9  0.000000000000000E+000
                    10 -1.135691310202875E-004
                    11  0.000000000000000E+000
                    12  0.000000000000000E+000
                    13  7.595707056945638E-005
                    14 -1.725783617516764E-004
                    15 -3.969111277977362E-002
                    16 -3.295976050289245E-004
                    17 -3.190698512777290E-003
                    18  2.962835979853911E-004
                    19 -1.255903109809582E-004
                    20  0.000000000000000E+000
                    21 -1.634725103899712E-003
                    22  2.584414257163264E-004
                    23  0.000000000000000E+000
                    24 -1.135691310202875E-004
                    25  0.000000000000000E+000
                    26  0.000000000000000E+000
                    27  7.595707056945638E-005
                    28 -1.725783617516764E-004
                    29 -0.612999458745696     
                    30 -1.509717584995893E-002
                    31  8.010424726884215E-003
                    32 -2.001569929881331E-004
                    33  1.732541610681689E-004
                    34  0.000000000000000E+000
                    35  1.258827781491965E-003
                    36 -1.234626048154895E-003
                    37  0.000000000000000E+000
                    38  2.371431383379698E-004
                    39  0.000000000000000E+000
                    40  0.000000000000000E+000
                    41 -1.544906343625444E-004
                    42  2.271834290272956E-004
                    43 -0.612999458745696     
                    44 -1.509717584995893E-002
                    45  8.010424726884215E-003
                    46  2.001569929881331E-004
                    47 -1.732541610681689E-004
                    48  0.000000000000000E+000
                    49 -1.258827781491965E-003
                    50  1.234626048154895E-003
                    51  0.000000000000000E+000
                    52  2.371431383379698E-004
                    53  0.000000000000000E+000
                    54  0.000000000000000E+000
                    55 -1.544906343625444E-004
                    56  2.271834290272956E-004
                    57 -0.344383645204217     
                    58 -7.896318892914672E-003
                    59  9.159138190356366E-004
                    60  4.202510987821992E-005
                    61  1.104870122812287E-005
                    62  0.000000000000000E+000
                    63 -3.764887227474023E-004
                    64  7.475856331735900E-004
                    65  0.000000000000000E+000
                    66 -6.561696435680748E-005
                    67  0.000000000000000E+000
                    68  0.000000000000000E+000
                    69  2.667482372324920E-005
                    70  1.856503003111173E-004
                    71 -0.344383645204217     
                    72 -7.896318892914672E-003
                    73  9.159138190356366E-004
                    74 -4.202510987821992E-005
                    75 -1.104870122812287E-005
                    76  0.000000000000000E+000
                    77  3.764887227474023E-004
                    78 -7.475856331735900E-004
                    79  0.000000000000000E+000
                    80 -6.561696435680748E-005
                    81  0.000000000000000E+000
                    82  0.000000000000000E+000
                    83  2.667482372324920E-005
                    84  1.856503003111173E-004
                    85  7.567476551732159E-005
                    86 -3.432087892603038E-004
                    87  7.567476551732159E-005
                    88 -3.432087892603038E-004
                    89  1.562446236043205E-004
                    90  6.986736518733058E-005
                    91  1.562446236043205E-004
                    92  6.986736518733058E-005
                    93  3.092828438968105E-004
                    94 -1.100860322125887E-003
                    95  3.092828438968105E-004
                    96 -1.100860322125887E-003
                    97  3.285948889916509E-004
                    98 -1.347898195224846E-004
                    99  3.285948889916509E-004
                   100 -1.347898195224846E-004
 Sym= __2_Ag_
 Ene=   2.00000000000000     
 Spin= Alpha
 Occup=    1.00000000000000     
                     1  2.494935121043528E-002
                     2  4.341167764761344E-004
                     3  8.045197842865722E-004
                     4  1.043991563247613E-004
                     5 -8.772099307044170E-005
                     6  0.000000000000000E+000
                     7 -3.362297365523817E-004
                     8  1.133776607796769E-004
                     9  0.000000000000000E+000
                    10  1.319080602638970E-004
                    11  0.000000000000000E+000
                    12  0.000000000000000E+000
                    13 -4.154551824324270E-005
                    14  8.531663441920181E-005
                    15  2.494935121043528E-002
                    16  4.341167764761344E-004
                    17  8.045197842865722E-004
                    18 -1.043991563247613E-004
                    19  8.772099307044170E-005
                    20  0.000000000000000E+000
                    21  3.362297365523817E-004
                    22 -1.133776607796769E-004
                    23  0.000000000000000E+000
                    24  1.319080602638970E-004
                    25  0.000000000000000E+000
                    26  0.000000000000000E+000
                    27 -4.154551824324270E-005
                    28  8.531663441920181E-005
                    29  0.343690226442324     
                    30  9.032596312197884E-003
                    31 -7.702943342222666E-003
                    32 -1.436331940750624E-004
                    33 -1.933364630036637E-004
                    34  0.000000000000000E+000
                    35  1.422435087606105E-003
                    36  5.656365189480389E-004
                    37  0.000000000000000E+000
                    38 -3.367902115116649E-004
                    39  0.000000000000000E+000
                    40  0.000000000000000E+000
                    41  1.864138876208983E-004
                    42  1.818994756551286E-004
                    43  0.343690226442324     
                    44  9.032596312197884E-003
                    45 -7.702943342222666E-003
                    46  1.436331940750624E-004
                    47  1.933364630036637E-004
                    48  0.000000000000000E+000
                    49 -1.422435087606105E-003
                    50 -5.656365189480389E-004
                    51  0.000000000000000E+000
                    52 -3.367902115116649E-004
                    53  0.000000000000000E+000
                    54  0.000000000000000E+000
                    55  1.864138876208983E-004
                    56  1.818994756551286E-004
                    57 -0.614245192353134     
                    58 -1.516521735381815E-002
                    59  8.089537108782541E-003
                    60 -2.161502386685084E-004
                    61 -1.268709737151176E-004
                    62  0.000000000000000E+000
                    63  1.801949092779908E-003
                    64  1.093167262120000E-003
                    65  0.000000000000000E+000
                    66  2.260285533740358E-004
                    67  0.000000000000000E+000
                    68  0.000000000000000E+000
                    69 -1.701625878023367E-004
                    70 -2.162720715759421E-004
                    71 -0.614245192353134     
                    72 -1.516521735381815E-002
                    73  8.089537108782541E-003
                    74  2.161502386685084E-004
                    75  1.268709737151176E-004
                    76  0.000000000000000E+000
                    77 -1.801949092779908E-003
                    78 -1.093167262120000E-003
                    79  0.000000000000000E+000
                    80  2.260285533740358E-004
                    81  0.000000000000000E+000
                    82  0.000000000000000E+000
                    83 -1.701625878023367E-004
                    84 -2.162720715759421E-004
                    85 -3.319543776159056E-005
                    86 -3.951250402419577E-005
                    87 -3.319543776159056E-005
                    88 -3.951250402419577E-005
                    89 -1.820019735657876E-005
                    90  1.631793598282056E-005
                    91 -1.820019735657876E-005
                    92  1.631793598282056E-005
                    93  3.192438366065292E-005
                    94  1.114572525787340E-003
                    95  3.192438366065292E-005
                    96  1.114572525787340E-003
                    97  2.074085931294395E-004
                    98 -1.241870104464447E-003
                    99  2.074085931294395E-004
                   100 -1.241870104464447E-003
 Sym= __3_Ag_
 Ene=   3.00000000000000     
 Spin= Alpha
 Occup=    1.00000000000000     
                     1  0.702779278617694     
                     2  1.739522081270352E-002
                     3 -9.853032763486638E-003
                     4 -3.027828200697164E-004
                     5  1.367300065579059E-004
                     6  0.000000000000000E+000
                     7  5.451478397958857E-004
                     8 -2.429346106555518E-004
                     9  0.000000000000000E+000
                    10 -3.788822637833012E-004
                    11  0.000000000000000E+000
                    12  0.000000000000000E+000
                    13  1.682388121524237E-004
                    14 -2.035985647000039E-004
                    15  0.702779278617694     
                    16  1.739522081270352E-002
                    17 -9.853032763486638E-003
                    18  3.027828200697164E-004
                    19 -1.367300065579059E-004
                    20  0.000000000000000E+000
                    21 -5.451478397958857E-004
                    22  2.429346106555518E-004
                    23  0.000000000000000E+000
                    24 -3.788822637833012E-004
                    25  0.000000000000000E+000
                    26  0.000000000000000E+000
                    27  1.682388121524237E-004
                    28 -2.035985647000039E-004
                    29 -4.714198638829276E-002
                    30 -1.801393251497166E-003
                    31  3.568767573354125E-003
                    32 -3.656697686783645E-004
                    33  1.954356686260909E-004
                    34  0.000000000000000E+000
                    35  1.114521917302334E-003
                    36 -3.723962633891634E-004
                    37  0.000000000000000E+000
                    38  2.327926127790174E-004
                    39  0.000000000000000E+000
                    40  0.000000000000000E+000
                    41 -1.601053998499429E-004
                    42  1.747356086692530E-004
                    43 -4.714198638829276E-002
                    44 -1.801393251497166E-003
                    45  3.568767573354125E-003
                    46  3.656697686783645E-004
                    47 -1.954356686260909E-004
                    48  0.000000000000000E+000
                    49 -1.114521917302334E-003
                    50  3.723962633891634E-004
                    51  0.000000000000000E+000
                    52  2.327926127790174E-004
                    53  0.000000000000000E+000
                    54  0.000000000000000E+000
                    55 -1.601053998499429E-004
                    56  1.747356086692530E-004
                    57  2.324392574410223E-003
                    58 -3.334260234812253E-005
                    59  2.097313459928387E-004
                    60 -6.721291482565880E-005
                    61  4.248176472402869E-005
                    62  0.000000000000000E+000
                    63  1.089329954863741E-004
                    64 -3.192980177375785E-004
                    65  0.000000000000000E+000
                    66 -6.201501863035274E-005
                    67  0.000000000000000E+000
                    68  0.000000000000000E+000
                    69  3.429144348962908E-005
                    70  4.098635621233161E-005
                    71  2.324392574410223E-003
                    72 -3.334260234812253E-005
                    73  2.097313459928387E-004
                    74  6.721291482565880E-005
                    75 -4.248176472402869E-005
                    76  0.000000000000000E+000
                    77 -1.089329954863741E-004
                    78  3.192980177375785E-004
                    79  0.000000000000000E+000
                    80 -6.201501863035274E-005
                    81  0.000000000000000E+000
                    82  0.000000000000000E+000
                    83  3.429144348962908E-005
                    84  4.098635621233161E-005
                    85 -2.251978844554945E-004
                    86  1.858534870870808E-003
                    87 -2.251978844554945E-004
                    88  1.858534870870808E-003
                    89 -2.080415872378226E-004
                    90  1.878083704494542E-003
                    91 -2.080415872378226E-004
                    92  1.878083704494542E-003
                    93 -8.804098925033646E-005
                    94 -1.867772118001245E-004
                    95 -8.804098925033646E-005
                    96 -1.867772118001245E-004
                    97 -6.648465158039109E-005
                    98 -1.618749554884896E-004
                    99 -6.648465158039109E-005
                   100 -1.618749554884896E-004
 Sym= __4_Ag_
 Ene=   4.00000000000000     
 Spin= Alpha
 Occup=    1.00000000000000     
                     1 -5.505823433020628E-002
                     2  0.105798846544986     
                     3  8.125833578893621E-002
                     4 -4.881776995553467E-002
                     5  1.755179326293205E-002
                     6  0.000000000000000E+000
                     7 -7.118819069081077E-003
                     8  3.232836213070110E-003
                     9  0.000000000000000E+000
                    10 -6.197771099886562E-003
                    11  0.000000000000000E+000
                    12  0.000000000000000E+000
                    13  3.047110291822802E-003
                    14 -3.037304264914614E-003
                    15 -5.505823433020628E-002
                    16  0.105798846544986     
                    17  8.125833578893621E-002
                    18  4.881776995553467E-002
                    19 -1.755179326293205E-002
                    20  0.000000000000000E+000
                    21  7.118819069081077E-003
                    22 -3.232836213070110E-003
                    23  0.000000000000000E+000
                    24 -6.197771099886562E-003
                    25  0.000000000000000E+000
                    26  0.000000000000000E+000
                    27  3.047110291822802E-003
                    28 -3.037304264914614E-003
                    29 -9.285570947069152E-002
                    30  0.180409465685253     
                    31  0.114605850941602     
                    32 -1.777908076564075E-002
                    33 -3.555302985019077E-002
                    34  0.000000000000000E+000
                    35 -1.209481350364571E-002
                    36  5.263517801634821E-003
                    37  0.000000000000000E+000
                    38 -1.028175775725844E-002
                    39  0.000000000000000E+000
                    40  0.000000000000000E+000
                    41  3.636155941874952E-003
                    42  1.929233569286849E-003
                    43 -9.285570947069152E-002
                    44  0.180409465685253     
                    45  0.114605850941602     
                    46  1.777908076564075E-002
                    47  3.555302985019077E-002
                    48  0.000000000000000E+000
                    49  1.209481350364571E-002
                    50 -5.263517801634821E-003
                    51  0.000000000000000E+000
                    52 -1.028175775725844E-002
                    53  0.000000000000000E+000
                    54  0.000000000000000E+000
                    55  3.636155941874952E-003
                    56  1.929233569286849E-003
                    57 -0.120778555371558     
                    58  0.234275586885020     
                    59  0.159132989158392     
                    60 -3.028456178976272E-002
                    61  4.460667101923459E-002
                    62  0.000000000000000E+000
                    63  1.657887861972516E-003
                    64 -4.316143091863141E-003
                    65  0.000000000000000E+000
                    66 -1.327627000564105E-002
                    67  0.000000000000000E+000
                    68  0.000000000000000E+000
                    69  4.949010191860448E-003
                    70 -1.529753718313547E-003
                    71 -0.120778555371558     
                    72  0.234275586885020     
                    73  0.159132989158392     
                    74  3.028456178976272E-002
                    75 -4.460667101923459E-002
                    76  0.000000000000000E+000
                    77 -1.657887861972516E-003
                    78  4.316143091863141E-003
                    79  0.000000000000000E+000
                    80 -1.327627000564105E-002
                    81  0.000000000000000E+000
                    82  0.000000000000000E+000
                    83  4.949010191860448E-003
                    84 -1.529753718313547E-003
                    85  2.287986241856929E-002
                    86  2.216668198633762E-003
                    87  2.287986241856929E-002
                    88  2.216668198633762E-003
                    89  2.644951674338985E-002
                    90  4.397980141014368E-003
                    91  2.644951674338985E-002
                    92  4.397980141014368E-003
                    93  4.486308138771052E-002
                    94  4.306987146475638E-003
                    95  4.486308138771052E-002
                    96  4.306987146475638E-003
                    97  5.789786070420127E-002
                    98  5.319255806240653E-003
                    99  5.789786070420127E-002
                   100  5.319255806240653E-003
 Sym= __5_Ag_
 Ene=   5.00000000000000     
 Spin= Alpha
 Occup=    1.00000000000000     
                     1 -0.107234726615759     
                     2  0.205924886733944     
                     3  0.175732106335637     
                     4 -4.472554100304756E-002
                     5  2.978192967220240E-002
                     6  0.000000000000000E+000
                     7 -6.816655205781962E-003
                     8 -3.874629646727752E-003
                     9  0.000000000000000E+000
                    10 -1.167038818418193E-002
                    11  0.000000000000000E+000
                    12  0.000000000000000E+000
                    13  1.516307300004761E-003
                    14 -2.461869526863646E-003
                    15 -0.107234726615759     
                    16  0.205924886733944     
                    17  0.175732106335637     
                    18  4.472554100304756E-002
                    19 -2.978192967220240E-002
                    20  0.000000000000000E+000
                    21  6.816655205781962E-003
                    22  3.874629646727752E-003
                    23  0.000000000000000E+000
                    24 -1.167038818418193E-002
                    25  0.000000000000000E+000
                    26  0.000000000000000E+000
                    27  1.516307300004761E-003
                    28 -2.461869526863646E-003
                    29 -5.675002567452261E-002
                    30  0.112051848886537     
                    31  6.033912548607732E-002
                    32  0.131809173320893     
                    33 -1.769208455929046E-002
                    34  0.000000000000000E+000
                    35  3.229371932736857E-002
                    36  1.227825623760460E-002
                    37  0.000000000000000E+000
                    38 -4.124026753253086E-003
                    39  0.000000000000000E+000
                    40  0.000000000000000E+000
                    41 -3.433639100901262E-004
                    42 -1.031012344440968E-002
                    43 -5.675002567452261E-002
                    44  0.112051848886537     
                    45  6.033912548607732E-002
                    46 -0.131809173320893     
                    47  1.769208455929046E-002
                    48  0.000000000000000E+000
                    49 -3.229371932736857E-002
                    50 -1.227825623760460E-002
                    51  0.000000000000000E+000
                    52 -4.124026753253086E-003
                    53  0.000000000000000E+000
                    54  0.000000000000000E+000
                    55 -3.433639100901262E-004
                    56 -1.031012344440968E-002
                    57  9.120328516638529E-002
                    58 -0.178826214206345     
                    59 -0.122834847980296     
                    60  0.107063245345826     
                    61 -2.926007447539228E-002
                    62  0.000000000000000E+000
                    63  3.454344444358353E-002
                    64  1.778337386048475E-002
                    65  0.000000000000000E+000
                    66  8.083099421768998E-003
                    67  0.000000000000000E+000
                    68  0.000000000000000E+000
                    69  2.326923590832748E-004
                    70  8.520595902527076E-003
                    71  9.120328516638529E-002
                    72 -0.178826214206345     
                    73 -0.122834847980296     
                    74 -0.107063245345826     
                    75  2.926007447539228E-002
                    76  0.000000000000000E+000
                    77 -3.454344444358353E-002
                    78 -1.778337386048475E-002
                    79  0.000000000000000E+000
                    80  8.083099421768998E-003
                    81  0.000000000000000E+000
                    82  0.000000000000000E+000
                    83  2.326923590832748E-004
                    84  8.520595902527076E-003
                    85  6.593997548363702E-002
                    86  1.890070642525185E-002
                    87  6.593997548363702E-002
                    88  1.890070642525185E-002
                    89  6.051107260233900E-002
                    90  1.009415011854473E-002
                    91  6.051107260233900E-002
                    92  1.009415011854473E-002
                    93  2.898822785932098E-002
                    94  3.238630107674251E-003
                    95  2.898822785932098E-002
                    96  3.238630107674251E-003
                    97 -4.833796707969171E-002
                    98 -3.040161298965250E-003
                    99 -4.833796707969171E-002
                   100 -3.040161298965250E-003
 Sym= __6_Ag_
 Ene=   6.00000000000000     
 Spin= Alpha
 Occup=    1.00000000000000     
                     1 -7.060872457637822E-002
                     2  0.137500041920038     
                     3  0.157939201585839     
                     4  0.122518811879694     
                     5 -8.789914315682179E-002
                     6  0.000000000000000E+000
                     7  4.533276471481063E-002
                     8 -2.392304736543427E-002