[Molden Format]
[Title]
title: SHARC-RICC2 run                                                          
[Atoms] AU
 c     1    6 -.85420874645081E+01 0.57222022242196E+01 0.18826963516713E+01
 c     2    6 -.74397724166732E+01 0.52380317122607E+01 0.42278616003915E+01
 c     3    6 -.51156190328246E+01 0.40088121059719E+01 0.43492122537408E+01
 c     4    6 -.38090604948213E+01 0.34903033804523E+01 0.21263085063661E+01
 c     5    6 -.48520664879756E+01 0.40182569571841E+01 -.24753144669442E+00
 c     6    6 -.72195853071216E+01 0.51945226577771E+01 -.32871597108932E+00
 o     7    8 -.86159908741129E+01 0.57761879203839E+01 0.64704373968095E+01
 c     8    6 -.33643795898613E+01 0.35446651321170E+01 -.26233480532900E+01
 c     9    6 -.21642957810894E+01 0.59914315063718E+01 -.36348220761909E+01
 n    10    7 -.71268375485196E+00 0.74145332344424E+01 -.17516778594261E+01
 c    11    6 -.42301368306555E+01 0.77039580197767E+01 -.47506089816271E+01
 o    12    8 -.41390992742037E+01 0.10090632992732E+02 -.39276124637679E+01
 o    13    8 -.57880213854280E+01 0.69433848252652E+01 -.62428350019125E+01
 h    14    1 -.12206856030727E+01 0.69091316493805E+01 0.29612008502320E-01
 h    15    1 -.26581757059191E+01 0.10089720255010E+02 -.27901976427408E+01
 h    16    1 -.92991533273170E+00 0.55169156052258E+01 -.52212093702257E+01
 h    17    1 -.45690346461488E+01 0.27658938749458E+01 -.41044870503538E+01
 h    18    1 -.18561721556701E+01 0.21894782715362E+01 -.22333444842589E+01
 h    19    1 -.19995966999777E+01 0.25304793522154E+01 0.22379043934176E+01
 h    20    1 -.81006077556172E+01 0.55903900469985E+01 -.21338088293875E+01
 h    21    1 -.43054650937645E+01 0.35866775235034E+01 0.61798447607250E+01
 h    22    1 -.10384184939940E+02 0.66183670482179E+01 0.17789938506769E+01
 h    23    1 -.10191359175067E+02 0.66175733632421E+01 0.61057297017932E+01
 h    24    1 0.11690148214212E+01 0.71364146805611E+01 -.19406353549056E+01
[GTO]
    1 0
 s    5 1.00
 0.12384016938000E+04 0.55173650481097E-02
 0.18629004992000E+03 0.41088828555946E-01
 0.42251176346000E+02 0.18225382126490E+00
 0.11676557932000E+02 0.46828459437429E+00
 0.35930506482000E+01 0.44575817336002E+00
 s    1 1.00
 0.40245147363000E+00 0.10000000000000E+01
 s    1 1.00
 0.13090182668000E+00 0.10000000000000E+01
 p    3 1.00
 0.94680970621000E+01 0.56888332011037E-01
 0.20103545142000E+01 0.31294059336471E+00
 0.54771004707000E+00 0.76065016509135E+00
 p    1 1.00
 0.15268613795000E+00 0.10000000000000E+01
 d    1 1.00
 0.80000000000000E+00 0.10000000000000E+01
 
    2 0
 s    5 1.00
 0.12384016938000E+04 0.55173650481097E-02
 0.18629004992000E+03 0.41088828555946E-01
 0.42251176346000E+02 0.18225382126490E+00
 0.11676557932000E+02 0.46828459437429E+00
 0.35930506482000E+01 0.44575817336002E+00
 s    1 1.00
 0.40245147363000E+00 0.10000000000000E+01
 s    1 1.00
 0.13090182668000E+00 0.10000000000000E+01
 p    3 1.00
 0.94680970621000E+01 0.56888332011037E-01
 0.20103545142000E+01 0.31294059336471E+00
 0.54771004707000E+00 0.76065016509135E+00
 p    1 1.00
 0.15268613795000E+00 0.10000000000000E+01
 d    1 1.00
 0.80000000000000E+00 0.10000000000000E+01
 
    3 0
 s    5 1.00
 0.12384016938000E+04 0.55173650481097E-02
 0.18629004992000E+03 0.41088828555946E-01
 0.42251176346000E+02 0.18225382126490E+00
 0.11676557932000E+02 0.46828459437429E+00
 0.35930506482000E+01 0.44575817336002E+00
 s    1 1.00
 0.40245147363000E+00 0.10000000000000E+01
 s    1 1.00
 0.13090182668000E+00 0.10000000000000E+01
 p    3 1.00
 0.94680970621000E+01 0.56888332011037E-01
 0.20103545142000E+01 0.31294059336471E+00
 0.54771004707000E+00 0.76065016509135E+00
 p    1 1.00
 0.15268613795000E+00 0.10000000000000E+01
 d    1 1.00
 0.80000000000000E+00 0.10000000000000E+01
 
    4 0
 s    5 1.00
 0.12384016938000E+04 0.55173650481097E-02
 0.18629004992000E+03 0.41088828555946E-01
 0.42251176346000E+02 0.18225382126490E+00
 0.11676557932000E+02 0.46828459437429E+00
 0.35930506482000E+01 0.44575817336002E+00
 s    1 1.00
 0.40245147363000E+00 0.10000000000000E+01
 s    1 1.00
 0.13090182668000E+00 0.10000000000000E+01
 p    3 1.00
 0.94680970621000E+01 0.56888332011037E-01
 0.20103545142000E+01 0.31294059336471E+00
 0.54771004707000E+00 0.76065016509135E+00
 p    1 1.00
 0.15268613795000E+00 0.10000000000000E+01
 d    1 1.00
 0.80000000000000E+00 0.10000000000000E+01
 
    5 0
 s    5 1.00
 0.12384016938000E+04 0.55173650481097E-02
 0.18629004992000E+03 0.41088828555946E-01
 0.42251176346000E+02 0.18225382126490E+00
 0.11676557932000E+02 0.46828459437429E+00
 0.35930506482000E+01 0.44575817336002E+00
 s    1 1.00
 0.40245147363000E+00 0.10000000000000E+01
 s    1 1.00
 0.13090182668000E+00 0.10000000000000E+01
 p    3 1.00
 0.94680970621000E+01 0.56888332011037E-01
 0.20103545142000E+01 0.31294059336471E+00
 0.54771004707000E+00 0.76065016509135E+00
 p    1 1.00
 0.15268613795000E+00 0.10000000000000E+01
 d    1 1.00
 0.80000000000000E+00 0.10000000000000E+01
 
    6 0
 s    5 1.00
 0.12384016938000E+04 0.55173650481097E-02
 0.18629004992000E+03 0.41088828555946E-01
 0.42251176346000E+02 0.18225382126490E+00
 0.11676557932000E+02 0.46828459437429E+00
 0.35930506482000E+01 0.44575817336002E+00
 s    1 1.00
 0.40245147363000E+00 0.10000000000000E+01
 s    1 1.00
 0.13090182668000E+00 0.10000000000000E+01
 p    3 1.00
 0.94680970621000E+01 0.56888332011037E-01
 0.20103545142000E+01 0.31294059336471E+00
 0.54771004707000E+00 0.76065016509135E+00
 p    1 1.00
 0.15268613795000E+00 0.10000000000000E+01
 d    1 1.00
 0.80000000000000E+00 0.10000000000000E+01
 
    7 0
 s    5 1.00
 0.22661767785000E+04 -.53893503921743E-02
 0.34087010191000E+03 -.40234721388960E-01
 0.77363135167000E+02 -.18008184205526E+00
 0.21479644940000E+02 -.46828857657651E+00
 0.66589433124000E+01 -.44692617160187E+00
 s    1 1.00
 0.80975975668000E+00 0.10000000000000E+01
 s    1 1.00
 0.25530772234000E+00 0.10000000000000E+01
 p    3 1.00
 0.17721504317000E+02 0.62630248763161E-01
 0.38635505440000E+01 0.33331138482352E+00
 0.10480920883000E+01 0.74148638308122E+00
 p    1 1.00
 0.27641544411000E+00 0.10000000000000E+01
 d    1 1.00
 0.12000000000000E+01 0.10000000000000E+01
 
    8 0
 s    5 1.00
 0.12384016938000E+04 0.55173650481097E-02
 0.18629004992000E+03 0.41088828555946E-01
 0.42251176346000E+02 0.18225382126490E+00
 0.11676557932000E+02 0.46828459437429E+00
 0.35930506482000E+01 0.44575817336002E+00
 s    1 1.00
 0.40245147363000E+00 0.10000000000000E+01
 s    1 1.00
 0.13090182668000E+00 0.10000000000000E+01
 p    3 1.00
 0.94680970621000E+01 0.56888332011037E-01
 0.20103545142000E+01 0.31294059336471E+00
 0.54771004707000E+00 0.76065016509135E+00
 p    1 1.00
 0.15268613795000E+00 0.10000000000000E+01
 d    1 1.00
 0.80000000000000E+00 0.10000000000000E+01
 
    9 0
 s    5 1.00
 0.12384016938000E+04 0.55173650481097E-02
 0.18629004992000E+03 0.41088828555946E-01
 0.42251176346000E+02 0.18225382126490E+00
 0.11676557932000E+02 0.46828459437429E+00
 0.35930506482000E+01 0.44575817336002E+00
 s    1 1.00
 0.40245147363000E+00 0.10000000000000E+01
 s    1 1.00
 0.13090182668000E+00 0.10000000000000E+01
 p    3 1.00
 0.94680970621000E+01 0.56888332011037E-01
 0.20103545142000E+01 0.31294059336471E+00
 0.54771004707000E+00 0.76065016509135E+00
 p    1 1.00
 0.15268613795000E+00 0.10000000000000E+01
 d    1 1.00
 0.80000000000000E+00 0.10000000000000E+01
 
   10 0
 s    5 1.00
 0.17128415853000E+04 -.54477995804909E-02
 0.25764812677000E+03 -.40627174632423E-01
 0.58458245853000E+02 -.18111962250584E+00
 0.16198367905000E+02 -.46843975563173E+00
 0.50052600809000E+01 -.44616846289231E+00
 s    1 1.00
 0.58731856571000E+00 0.10000000000000E+01
 s    1 1.00
 0.18764592253000E+00 0.10000000000000E+01
 p    3 1.00
 0.13571470233000E+02 -.58848116969522E-01
 0.29257372874000E+01 -.32024624762471E+00
 0.79927750754000E+00 -.75328226520436E+00
 p    1 1.00
 0.21954348034000E+00 0.10000000000000E+01
 d    1 1.00
 0.10000000000000E+01 0.10000000000000E+01
 
   11 0
 s    5 1.00
 0.12384016938000E+04 0.55173650481097E-02
 0.18629004992000E+03 0.41088828555946E-01
 0.42251176346000E+02 0.18225382126490E+00
 0.11676557932000E+02 0.46828459437429E+00
 0.35930506482000E+01 0.44575817336002E+00
 s    1 1.00
 0.40245147363000E+00 0.10000000000000E+01
 s    1 1.00
 0.13090182668000E+00 0.10000000000000E+01
 p    3 1.00
 0.94680970621000E+01 0.56888332011037E-01
 0.20103545142000E+01 0.31294059336471E+00
 0.54771004707000E+00 0.76065016509135E+00
 p    1 1.00
 0.15268613795000E+00 0.10000000000000E+01
 d    1 1.00
 0.80000000000000E+00 0.10000000000000E+01
 
   12 0
 s    5 1.00
 0.22661767785000E+04 -.53893503921743E-02
 0.34087010191000E+03 -.40234721388960E-01
 0.77363135167000E+02 -.18008184205526E+00
 0.21479644940000E+02 -.46828857657651E+00
 0.66589433124000E+01 -.44692617160187E+00
 s    1 1.00
 0.80975975668000E+00 0.10000000000000E+01
 s    1 1.00
 0.25530772234000E+00 0.10000000000000E+01
 p    3 1.00
 0.17721504317000E+02 0.62630248763161E-01
 0.38635505440000E+01 0.33331138482352E+00
 0.10480920883000E+01 0.74148638308122E+00
 p    1 1.00
 0.27641544411000E+00 0.10000000000000E+01
 d    1 1.00
 0.12000000000000E+01 0.10000000000000E+01
 
   13 0
 s    5 1.00
 0.22661767785000E+04 -.53893503921743E-02
 0.34087010191000E+03 -.40234721388960E-01
 0.77363135167000E+02 -.18008184205526E+00
 0.21479644940000E+02 -.46828857657651E+00
 0.66589433124000E+01 -.44692617160187E+00
 s    1 1.00
 0.80975975668000E+00 0.10000000000000E+01
 s    1 1.00
 0.25530772234000E+00 0.10000000000000E+01
 p    3 1.00
 0.17721504317000E+02 0.62630248763161E-01
 0.38635505440000E+01 0.33331138482352E+00
 0.10480920883000E+01 0.74148638308122E+00
 p    1 1.00
 0.27641544411000E+00 0.10000000000000E+01
 d    1 1.00
 0.12000000000000E+01 0.10000000000000E+01
 
   14 0
 s    3 1.00
 0.13010701000000E+02 0.33485484812989E-01
 0.19622572000000E+01 0.23472187088125E+00
 0.44453796000000E+00 0.81377028525955E+00
 s    1 1.00
 0.12194962000000E+00 0.10000000000000E+01
 p    1 1.00
 0.80000000000000E+00 0.10000000000000E+01
 
   15 0
 s    3 1.00
 0.13010701000000E+02 0.33485484812989E-01
 0.19622572000000E+01 0.23472187088125E+00
 0.44453796000000E+00 0.81377028525955E+00
 s    1 1.00
 0.12194962000000E+00 0.10000000000000E+01
 p    1 1.00
 0.80000000000000E+00 0.10000000000000E+01
 
   16 0
 s    3 1.00
 0.13010701000000E+02 0.33485484812989E-01
 0.19622572000000E+01 0.23472187088125E+00
 0.44453796000000E+00 0.81377028525955E+00
 s    1 1.00
 0.12194962000000E+00 0.10000000000000E+01
 p    1 1.00
 0.80000000000000E+00 0.10000000000000E+01
 
   17 0
 s    3 1.00
 0.13010701000000E+02 0.33485484812989E-01
 0.19622572000000E+01 0.23472187088125E+00
 0.44453796000000E+00 0.81377028525955E+00
 s    1 1.00
 0.12194962000000E+00 0.10000000000000E+01
 p    1 1.00
 0.80000000000000E+00 0.10000000000000E+01
 
   18 0
 s    3 1.00
 0.13010701000000E+02 0.33485484812989E-01
 0.19622572000000E+01 0.23472187088125E+00
 0.44453796000000E+00 0.81377028525955E+00
 s    1 1.00
 0.12194962000000E+00 0.10000000000000E+01
 p    1 1.00
 0.80000000000000E+00 0.10000000000000E+01
 
   19 0
 s    3 1.00
 0.13010701000000E+02 0.33485484812989E-01
 0.19622572000000E+01 0.23472187088125E+00
 0.44453796000000E+00 0.81377028525955E+00
 s    1 1.00
 0.12194962000000E+00 0.10000000000000E+01
 p    1 1.00
 0.80000000000000E+00 0.10000000000000E+01
 
   20 0
 s    3 1.00
 0.13010701000000E+02 0.33485484812989E-01
 0.19622572000000E+01 0.23472187088125E+00
 0.44453796000000E+00 0.81377028525955E+00
 s    1 1.00
 0.12194962000000E+00 0.10000000000000E+01
 p    1 1.00
 0.80000000000000E+00 0.10000000000000E+01
 
   21 0
 s    3 1.00
 0.13010701000000E+02 0.33485484812989E-01
 0.19622572000000E+01 0.23472187088125E+00
 0.44453796000000E+00 0.81377028525955E+00
 s    1 1.00
 0.12194962000000E+00 0.10000000000000E+01
 p    1 1.00
 0.80000000000000E+00 0.10000000000000E+01
 
   22 0
 s    3 1.00
 0.13010701000000E+02 0.33485484812989E-01
 0.19622572000000E+01 0.23472187088125E+00
 0.44453796000000E+00 0.81377028525955E+00
 s    1 1.00
 0.12194962000000E+00 0.10000000000000E+01
 p    1 1.00
 0.80000000000000E+00 0.10000000000000E+01
 
   23 0
 s    3 1.00
 0.13010701000000E+02 0.33485484812989E-01
 0.19622572000000E+01 0.23472187088125E+00
 0.44453796000000E+00 0.81377028525955E+00
 s    1 1.00
 0.12194962000000E+00 0.10000000000000E+01
 p    1 1.00
 0.80000000000000E+00 0.10000000000000E+01
 
   24 0
 s    3 1.00
 0.13010701000000E+02 0.33485484812989E-01
 0.19622572000000E+01 0.23472187088125E+00
 0.44453796000000E+00 0.81377028525955E+00
 s    1 1.00
 0.12194962000000E+00 0.10000000000000E+01
 p    1 1.00
 0.80000000000000E+00 0.10000000000000E+01
 
[MO]
 Sym=     1a   
 Ene= -.20588377194026E+02
 Spin= Alpha
 Occup= 2.000000
     1 0.20880611034998E-04
     2 -.29484942152876E-03
     3 -.80816151915286E-02
     4 0.48525644731463E-04
     5 -.11857545927839E-04
     6 -.30090990244694E-04
     7 -.56449709154239E-02
     8 0.24455773778375E-02
     9 0.11326322980296E-02
    10 -.20438578262924E-03
    11 0.97831785909519E-05
    12 0.19460260403829E-03
    13 0.12405111733780E-03
    14 -.62185975344050E-04
    15 0.33758335941189E-04
    16 0.45803028262809E-04
    17 -.21949889580282E-02
    18 0.10451762006751E-02
    19 0.14675031755987E-04
    20 -.16150699472027E-04
    21 0.53404300103948E-04
    22 0.73561597853561E-02
    23 -.34286917458122E-02
    24 -.14343843856722E-01
    25 -.13122083890390E-03
    26 -.71332653384789E-04
    27 0.20255349228869E-03
    28 0.35798796102051E-04
    29 -.20354239591065E-03
    30 0.10772235586317E-03
    31 0.93774937677263E-05
    32 -.19594479358517E-03
    33 -.38900532507318E-02
    34 -.10931106035421E-03
    35 0.75978541663175E-04
    36 0.25719336708861E-04
    37 0.19511189346595E-02
    38 -.12208513965387E-02
    39 0.43770627509416E-02
    40 0.83037814102158E-04
    41 0.42017704030313E-04
    42 -.12505551813247E-03
    43 -.16372879359872E-04
    44 -.17918510593110E-03
    45 0.10817415687851E-03
    46 -.34155775229306E-04
    47 0.73090174059694E-03
    48 0.15897829885224E-02
    49 -.14751249197974E-03
    50 0.91458184621752E-04
    51 0.11864917198397E-03
    52 0.38849803262817E-03
    53 -.25975073286201E-03
    54 -.69773528331381E-03
    55 0.26067345248288E-04
    56 0.55041816503882E-04
    57 -.81109161752170E-04
    58 0.30357077432856E-04
    59 0.18518952694088E-04
    60 -.55746869794485E-05
    61 -.27695764650868E-04
    62 0.34212391306869E-03
    63 -.20002739750984E-03
    64 -.44972610034575E-04
    65 0.78762547168621E-04
    66 0.12487890422864E-03
    67 0.77142254260589E-03
    68 -.50020560629619E-03
    69 -.14171863873772E-02
    70 -.15215273576765E-04
    71 -.37292675535661E-05
    72 0.18944541130331E-04
    73 0.19891086554485E-04
    74 -.34335861522618E-04
    75 0.11304927974249E-04
    76 -.31681100410690E-04
    77 0.58028620626019E-03
    78 0.50268675198836E-02
    79 -.26128681862552E-04
    80 0.13749061259531E-04
    81 0.19932474481678E-03
    82 -.36178114865437E-03
    83 0.11756605870305E-03
    84 0.74277998141472E-03
    85 -.28731160755156E-04
    86 0.27552701353647E-04
    87 0.11784594015092E-05
    88 0.38678121538663E-04
    89 0.41551132199201E-04
    90 -.26728814136128E-04
    91 0.99012762083815E+00
    92 -.36062186787165E-01
    93 0.24927459861003E-01
    94 0.76485863967317E-03
    95 -.49679623920987E-03
    96 0.22292057959735E-02
    97 0.29752394348019E-02
    98 -.13134298047037E-02
    99 -.57060691679500E-02
   100 -.27246311261688E-03
   101 0.58008467863216E-06
   102 0.27188302793825E-03
   103 0.23988645040373E-03
   104 -.18499603563503E-03
   105 0.89021723455106E-04
   106 -.19256298250602E-04
   107 0.41397088569831E-03
   108 -.28985782953221E-02
   109 -.10839285221053E-04
   110 -.14517446035911E-05
   111 0.38714646451376E-04
   112 0.40722589419146E-03
   113 -.45642286348232E-03
   114 -.11419117753868E-02
   115 0.19187638080954E-05
   116 0.94709599343299E-05
   117 -.11389723742425E-04
   118 0.31580151999396E-05
   119 0.20400686819478E-04
   120 -.53706936474319E-05
   121 0.27722039373101E-05
   122 -.13712295182310E-03
   123 0.16334146045773E-02
   124 -.13845189201022E-05
   125 -.17846638838146E-04
   126 -.24311417390489E-04
   127 -.96109180292030E-04
   128 0.33075036732516E-03
   129 0.85234360904359E-03
   130 -.45591582215605E-05
   131 0.16137998507054E-06
   132 0.43977782364899E-05
   133 0.44179648061054E-05
   134 0.64696714685227E-05
   135 -.27557366355600E-05
   136 0.46266416998848E-05
   137 0.10283828310505E-03
   138 -.10068308895219E-02
   139 0.10051213829160E-05
   140 -.99132216866936E-05
   141 -.51039321489401E-05
   142 0.25542658718475E-03
   143 0.17354727277685E-03
   144 0.14315911865394E-04
   145 0.16094821358814E-07
   146 0.10293484254396E-04
   147 -.10309579075755E-04
   148 -.79129353814998E-05
   149 0.35574852016255E-05
   150 0.58788543842038E-07
   151 0.11546171341939E-06
   152 0.29246358325916E-04
   153 -.38039285172423E-03
   154 -.74860799831084E-05
   155 -.10593765292356E-05
   156 -.26645801272025E-05
   157 -.33435887806230E-03
   158 -.35505361118293E-03
   159 -.61592260989653E-03
   160 0.60887313700685E-05
   161 -.75030337986125E-05
   162 0.14143024285439E-05
   163 0.18027112890973E-05
   164 -.19756280526039E-05
   165 0.13193823992796E-05
   166 0.26736398452535E-03
   167 -.69522906633495E-04
   168 0.41487933448872E-03
   169 0.40804893438855E-05
   170 0.29983321838211E-05
   171 0.43607783319145E-05
   172 0.20412052018078E-04
   173 -.12130743409621E-03
   174 0.65225960780800E-05
   175 0.11105252450185E-05
   176 0.16694144220233E-05
   177 -.27799396670418E-05
   178 0.11613198982408E-05
   179 0.34210339584645E-06
   180 0.22095463162410E-06
   181 -.10345723874205E-04
   182 0.44034794876231E-04
   183 -.38875537463976E-03
   184 0.17699755319164E-04
   185 0.11206405367064E-04
   186 -.20460888731443E-04
   187 -.14140185955867E-03
   188 -.48638127020709E-04
   189 0.32674456059256E-04
   190 -.37699286886189E-05
   191 0.34114064007239E-06
   192 0.34287880485465E-05
   193 -.57525465894753E-06
   194 -.10841885073460E-05
   195 -.38521925677083E-07
   196 0.27486207231956E-04
   197 0.34202098765913E-03
   198 0.27422592290278E-05
   199 0.14812888709119E-04
   200 -.54355631914479E-04
   201 -.15682342054229E-04
   202 0.44260475438499E-04
   203 0.20920489248018E-04
   204 -.13188302881509E-04
   205 0.65844231522151E-05
   206 0.46715016075452E-04
   207 -.20850991272135E-04
   208 -.15446207425774E-04
   209 -.48043089753412E-05
   210 -.30908469701601E-04
   211 0.50383096595177E-04
   212 0.45094476446454E-04
   213 -.48049567094574E-04
   214 0.36379848170716E-05
   215 0.25028397434311E-04
   216 0.11172858411786E-03
   217 0.14375890006434E-03
   218 0.48810493730009E-05
   219 -.33501646769031E-05
   220 0.47745554120114E-04
   221 -.17121303015192E-03
   222 -.53373849205001E-03
   223 0.53059122872524E-04
   224 -.24494171541553E-04
   225 0.92095204121760E-04
   226 -.18114528629297E-03
   227 -.71437438245796E-03
   228 -.50693582892734E-04
   229 0.28265684280414E-04
   230 -.65766409301992E-04
   231 -.36133786300400E-03
   232 -.13405096075535E-02
   233 -.21720804045229E-03
   234 0.13846688323645E-03
   235 -.39042490283322E-04
   236 -.54319060947180E-03
   237 -.79997194936911E-03
   238 0.21615979009228E-03
   239 -.72483384074382E-04
   240 0.91254117131246E-04
   241 0.89352177675885E-03
   242 -.52232233010935E-03
   243 0.18250136233889E-02
   244 -.98326547439700E-03
   245 0.79564417081776E-03
   246 0.13538872649897E-04
   247 -.83572277314285E-04
   248 0.72636861559773E-05
   249 -.41218095351099E-06
   250 0.12060335218627E-04
 Sym=     2a   
 Ene= -.20583190645588E+02
 Spin= Alpha
 Occup= 2.000000
     1 -.71418845150297E-05
     2 0.96725923757280E-04
     3 -.86156365660324E-03
     4 0.14040775862872E-04
     5 0.18512668792659E-04
     6 -.30123130782314E-04
     7 -.35178811402783E-03
     8 -.35828694366676E-03
     9 0.71229897297835E-03
    10 -.14055120175341E-04
    11 0.79798846465777E-05
    12 0.60752355287635E-05
    13 -.13282464097119E-04
    14 0.10705566657443E-04
    15 0.22910657151620E-04
    16 0.42939475888619E-05
    17 -.60727999450554E-04
    18 -.23664246534845E-03
    19 -.15256785374857E-04
    20 0.19840190210605E-05
    21 -.54626154312898E-06
    22 0.35492342180023E-03
    23 0.26900838999242E-04
    24 0.60139288839279E-04
    25 -.74377483502431E-05
    26 0.52606487847159E-05
    27 0.21770995655272E-05
    28 -.44956403383514E-05
    29 -.30771782650077E-05
    30 -.44444588939962E-05
    31 0.16321612794554E-05
    32 -.87448770977214E-04
    33 -.10246819499942E-03
    34 0.13935849365149E-04
    35 0.56486121264022E-05
    36 0.17554938608592E-04
    37 -.39152340536731E-04
    38 -.67750387625271E-04
    39 -.24707321573436E-03
    40 0.48420172725770E-05
    41 -.12720653990788E-04
    42 0.78786367182109E-05
    43 -.43682960878628E-05
    44 -.20422572707736E-06
    45 -.18073297085100E-05
    46 -.15051652097596E-04
    47 0.20157037390193E-03
    48 0.68587938777821E-05
    49 -.17050630593602E-04
    50 0.37114895248489E-04
    51 -.30310018015377E-04
    52 -.47629573838833E-03
    53 0.22652916148291E-03
    54 -.50294978830223E-05
    55 0.12698668295713E-04
    56 -.54576562807776E-06
    57 -.12152902667635E-04
    58 -.57440627417216E-05
    59 0.10838412106958E-04
    60 -.62379081690543E-05
    61 0.90365065796127E-05
    62 -.77588930181473E-04
    63 0.20736688022151E-02
    64 0.47840945810167E-05
    65 -.34911974154653E-04
    66 0.83059346660831E-04
    67 0.14556514502319E-02
    68 -.93901145291837E-03
    69 -.26529825959907E-02
    70 0.77030378125387E-05
    71 -.42562188330233E-04
    72 0.34859150517695E-04
    73 -.19651624630082E-05
    74 -.29820433390373E-04
    75 0.80599416183950E-05
    76 0.36875938391768E-04
    77 -.53881890846673E-03
    78 0.29505278729134E-02
    79 -.11735393448569E-03
    80 -.18209697513228E-03
    81 0.10611459403641E-03
    82 0.72779203860027E-03
    83 0.67777712903548E-03
    84 0.29429008359340E-03
    85 0.10161265253671E-04
    86 -.37689660926507E-04
    87 0.27528395672836E-04
    88 -.19502494904961E-04
    89 0.31486393179035E-04
    90 -.26937324288860E-04
    91 -.27459118322678E-03
    92 -.28432881627888E-04
    93 0.15274697872770E-03
    94 -.39003577306894E-05
    95 0.39930853995915E-05
    96 0.12870217722827E-05
    97 -.80849217260164E-05
    98 -.28342038077442E-04
    99 -.48962673249217E-04
   100 -.10463585433738E-05
   101 0.20647501081587E-06
   102 0.83988353255795E-06
   103 -.12051508397624E-05
   104 0.12021749042692E-05
   105 0.94131900130878E-06
   106 -.21355038619031E-04
   107 0.58370089736646E-03
   108 -.24291281217034E-02
   109 -.81228781477930E-04
   110 0.73909503217527E-04
   111 -.84606158207677E-04
   112 0.23795292048237E-02
   113 -.10189090996281E-02
   114 -.27151951126589E-02
   115 -.89043044862757E-06
   116 -.23106198144292E-04
   117 0.23996628592919E-04
   118 -.26119966842518E-04
   119 -.34662063948408E-04
   120 -.57301115076270E-04
   121 -.61411057099633E-04
   122 0.41235768833210E-03
   123 0.18065403832010E-02
   124 -.17239810074337E-03
   125 0.97307066080283E-04
   126 -.11411637414723E-03
   127 0.24848359864772E-02
   128 0.46200790960131E-02
   129 0.45520734913906E-02
   130 -.14241284131767E-04
   131 0.70799403751676E-04
   132 -.56558119619908E-04
   133 -.66101182839873E-04
   134 -.47346656407471E-04
   135 -.95240354335893E-05
   136 0.11364913965274E-04
   137 0.20712234412667E-03
   138 -.37950404322352E-02
   139 0.15083527779275E-04
   140 0.18038842467138E-03
   141 0.80489794374932E-04
   142 0.46210891277699E-03
   143 0.19483153186555E-02
   144 0.11102596052504E-02
   145 0.10879373824823E-04
   146 0.14628506305043E-04
   147 -.25507880129866E-04
   148 -.52081371254821E-04
   149 -.94208137016703E-05
   150 -.45337969861799E-04
   151 -.10272104860980E-03
   152 -.52078363478685E-03
   153 -.74282925400423E-02
   154 -.15074305603458E-03
   155 -.31391877336787E-03
   156 -.56364306429595E-04
   157 -.21587656414347E-02
   158 -.11704489663652E-01
   159 -.62358731437708E-02
   160 -.24407564647236E-03
   161 0.33366905702973E-03
   162 -.89593410557374E-04
   163 0.97940079806703E-04
   164 -.13337709068189E-03
   165 0.22045249614436E-03
   166 0.99010642154008E+00
   167 -.36234886674590E-01
   168 0.25938110122325E-01
   169 -.13184227454241E-02
   170 0.19746731181690E-02
   171 -.39286526762064E-03
   172 0.40557820713110E-03
   173 -.59574142684520E-02
   174 -.14121333357290E-02
   175 -.15349923480905E-03
   176 0.19983369297201E-03
   177 -.46334458162970E-04
   178 -.10717473973216E-04
   179 -.25058801110842E-03
   180 0.90847294302227E-05
   181 -.86110807235615E-03
   182 0.10615227250352E-02
   183 -.45547598352100E-02
   184 0.21020247270912E-03
   185 -.36818205809610E-04
   186 0.91154572411351E-04
   187 -.16333547306180E-02
   188 0.15477714908648E-02
   189 -.49179148434544E-03
   190 -.94417327946777E-04
   191 0.69052010623633E-04
   192 0.25365317323143E-04
   193 0.11457710305878E-03
   194 -.65119110219586E-04
   195 0.10784724494614E-03
   196 -.14294383814704E-04
   197 0.15901045772163E-03
   198 0.67709564919416E-04
   199 -.13080040061351E-03
   200 -.51226130284652E-04
   201 0.20610817123940E-03
   202 -.15144569187350E-02
   203 -.14705580815258E-02
   204 0.34586927113651E-03
   205 -.10593228081946E-02
   206 0.27916058326215E-03
   207 0.57990306552085E-03
   208 -.16577770270422E-03
   209 -.25611146464619E-03
   210 -.12254693285005E-03
   211 0.16192504318804E-03
   212 -.45648604402569E-03
   213 -.75304500004311E-04
   214 -.16111840946754E-04
   215 0.84997535017396E-04
   216 -.23867966454365E-03
   217 -.62518099320317E-03
   218 -.83762626368973E-05
   219 -.47153051919145E-04
   220 0.14010759210112E-03
   221 0.45255978285176E-04
   222 0.35898229303958E-03
   223 0.11661352133856E-05
   224 0.43766506319850E-05
   225 -.12962913571701E-04
   226 -.32212496034768E-03
   227 0.28595570230627E-04
   228 -.76130031813328E-04
   229 -.80635865045909E-06
   230 0.52628772245595E-04
   231 0.43109766877606E-04
   232 0.11456160796486E-03
   233 -.15197468953201E-05
   234 0.10246577173754E-04
   235 0.18717439037028E-05
   236 0.38839160448770E-04
   237 0.10107696370219E-03
   238 0.31366829772743E-04
   239 0.37607808215665E-04
   240 -.42391066113222E-04
   241 -.12379145177085E-04
   242 -.46931094221486E-05
   243 -.89053333108084E-06
   244 0.10416103583604E-04
   245 0.54635916886773E-05
   246 0.17397159795177E-03
   247 -.15693273999600E-03
   248 0.69301296637365E-05
   249 -.15044795095674E-03
   250 0.57544888796589E-04
 Sym=     3a   
 Ene= -.20525877785270E+02
 Spin= Alpha
 Occup= 2.000000
     1 -.10814378543712E-04
     2 0.74761172609162E-04
     3 0.42028106712279E-02
     4 0.19078968559853E-04
     5 0.21914969459241E-04
     6 -.80327285707148E-04
     7 0.18379408902380E-02
     8 -.99094662139298E-03
     9 0.45154045765537E-03
    10 0.20135612012464E-06
    11 -.63511541071525E-05
    12 0.61497979870278E-05
    13 -.55608879399469E-05
    14 -.98694856367406E-05
    15 0.83456474607834E-05
    16 0.80597238749763E-06
    17 0.30832817347669E-04
    18 -.28907316376931E-02
    19 0.12663020211420E-04
    20 -.10835233096787E-04
    21 0.13833839246831E-04
    22 -.11259955759143E-03
    23 0.17005971002429E-03
    24 0.13188344754191E-02
    25 -.13998203186271E-05
    26 0.74994732769743E-05
    27 -.60996529583471E-05
    28 0.32099271714796E-05
    29 -.11927930288769E-04
    30 -.71152039139354E-06
    31 0.28490576356766E-05
    32 0.68905112129870E-06
    33 0.12119102735906E-02
    34 -.35575581535843E-06
    35 0.11937169261825E-05
    36 0.20681674216760E-05
    37 -.36014936070228E-03
    38 0.23693995614789E-03
    39 -.42954484691677E-03
    40 0.32553511831726E-05
    41 0.37283555414045E-05
    42 -.69837067245771E-05
    43 0.77252478846703E-05
    44 0.23685308093577E-05
    45 -.66015401844725E-05
    46 0.74281488305670E-05
    47 -.10644168613720E-03
    48 -.17044643307866E-02
    49 0.35274496988880E-04
    50 -.40844288037084E-05
    51 -.20324247745230E-04
    52 0.87168196904805E-03
    53 -.61741141717922E-03
    54 0.43300965791228E-03
    55 -.15065550465169E-04
    56 -.53487061379969E-05
    57 0.20414256603166E-04
    58 0.12863295033014E-04
    59 -.34780448802063E-05
    60 0.13772319229963E-04
    61 0.32491507431707E-04
    62 -.45773467433115E-03
    63 0.61579603577313E-03
    64 -.11203775179981E-04
    65 -.96944947480597E-04
    66 0.53103999452894E-04
    67 -.24125488212294E-02
    68 0.14975024051347E-02
    69 0.35007892941077E-02
    70 0.30527043479594E-04
    71 0.12155120351141E-04
    72 -.42682163830735E-04
    73 0.27547976992117E-05
    74 -.12558943910877E-04
    75 -.99749189737068E-05
    76 0.12182516110395E-04
    77 -.73017803997679E-04
    78 -.40358153764046E-02
    79 -.55665338982665E-04
    80 -.70011998894943E-04
    81 0.12093580727615E-03
    82 -.12280059276030E-02
    83 0.89196060712428E-03
    84 -.31689915132235E-02
    85 0.76151349232789E-06
    86 0.49424206689021E-05
    87 -.57039341612300E-05
    88 0.12447013279684E-04
    89 0.30273188682180E-04
    90 -.12526968813822E-04
    91 0.14966095071801E-04
    92 0.22574225013502E-04
    93 -.15959897287644E-03
    94 0.12243951621798E-04
    95 -.12946829261078E-06
    96 0.23550228292466E-05
    97 -.13853382891197E-03
    98 0.35253463965698E-04
    99 0.14094183236605E-04
   100 0.37560828862319E-06
   101 0.68904384730815E-06
   102 -.10646521359313E-05
   103 -.15275218568231E-05
   104 0.32656634368891E-05
   105 -.30722485523862E-06
   106 0.69454558450481E-05
   107 -.69247339986240E-03
   108 0.45705932940233E-02