 hostname is         polonium20
 this is node-proc. number 0 running on node polonium20
 the total number of node-proc. spawned is   1

   OpenMP run-time library returned nthreads =  4

 ricc2 (polonium20) : TURBOMOLE V7.0( 19819 ) 16 Jun 2015 at 16:30:15
 Copyright (C) 2015 TURBOMOLE GmbH, Karlsruhe


    2017-03-16 10:31:37.229 



                              R I C C 2 - PROGRAM

                          the quantum chemistry groups
                             at the universities in
                           Karlsruhe, Bochum & Mainz
                                   Germany



   *-----------------------------------------------------------------------*
   |                     program will use  4 thread(s)                     |
   *-----------------------------------------------------------------------*


              +--------------------------------------------------+
              | Atomic coordinate, charge and isotop information |
              +--------------------------------------------------+

                    atomic coordinates            atom    charge  isotop
         -8.54208746    5.72220222    1.88269635    c      6.000     0
         -7.43977242    5.23803171    4.22786160    c      6.000     0
         -5.11561903    4.00881211    4.34921225    c      6.000     0
         -3.80906049    3.49030338    2.12630851    c      6.000     0
         -4.85206649    4.01825696   -0.24753145    c      6.000     0
         -7.21958531    5.19452266   -0.32871597    c      6.000     0
         -8.61599087    5.77618792    6.47043740    o      8.000     0
         -3.36437959    3.54466513   -2.62334805    c      6.000     0
         -2.16429578    5.99143151   -3.63482208    c      6.000     0
         -0.71268375    7.41453323   -1.75167786    n      7.000     0
         -4.23013683    7.70395802   -4.75060898    c      6.000     0
         -4.13909927   10.09063299   -3.92761246    o      8.000     0
         -5.78802139    6.94338483   -6.24283500    o      8.000     0
         -1.22068560    6.90913165    0.02961201    h      1.000     0
         -2.65817571   10.08972026   -2.79019764    h      1.000     0
         -0.92991533    5.51691561   -5.22120937    h      1.000     0
         -4.56903465    2.76589387   -4.10448705    h      1.000     0
         -1.85617216    2.18947827   -2.23334448    h      1.000     0
         -1.99959670    2.53047935    2.23790439    h      1.000     0
         -8.10060776    5.59039005   -2.13380883    h      1.000     0
         -4.30546509    3.58667752    6.17984476    h      1.000     0
        -10.38418494    6.61836705    1.77899385    h      1.000     0
        -10.19135918    6.61757336    6.10572970    h      1.000     0
          1.16901482    7.13641468   -1.94063535    h      1.000     0
 
       center of nuclear mass  :   -5.04120892    5.89578990   -0.40739808
       center of nuclear charge:   -4.98751960    5.86882836   -0.39528240

              +--------------------------------------------------+
              |               basis set information              |
              +--------------------------------------------------+

              we will work with the 1s 3p 5d 7f 9g ... basis set
              ...i.e. with spherical basis functions...

   type   atoms  prim   cont   basis
   ---------------------------------------------------------------------------
    c        9     24     14   def2-SVP   [3s2p1d|7s4p1d]
    o        3     24     14   def2-SVP   [3s2p1d|7s4p1d]
    n        1     24     14   def2-SVP   [3s2p1d|7s4p1d]
    h       11      7      5   def2-SVP   [2s1p|4s1p]
   ---------------------------------------------------------------------------
   total:   24    389    237
   ---------------------------------------------------------------------------

   total number of primitive shells          :   41
   total number of contracted shells         :  111
   total number of cartesian basis functions :  250
   total number of SCF-basis functions       :  237



   =========================================================================


     restricted closed shell calculation for the wavefunction models:
               ADC(2)     - Algebraic Diagrammatic Construction to 2. Order (strict)


     global parameters for ricc2 program:

        hard restart (reuse of interm.) :  disabled
        soft restart (reuse of vectors) :  disabled
        threshold for vector function   :    0.100000E-05
        convergence threshold energy    :    0.100000E-06
        linear dependence threshold     :    0.100000E-13
        global print level              :      1
        maximum number of iterations    :    45
        maximum number DIIS vectors     :    30
        max. dim. of reduced space      :   100
        core memory limit (MB)          :  2000


   =========================================================================
     "cartesian on" in $drvopt is ignored by $ricc2

    der. integral neglect threshold  :  0.10E-07
    integral neglect threshold       :  0.13E-10
    integral storage threshold THIZE :  0.10E-04
    integral storage threshold THIME :         5


                  +------------------------------------------+
                  |     Auxiliary basis set information      |
                  +------------------------------------------+

              we will work with the 1s 3p 5d 7f 9g ... basis set
              ...i.e. with spherical basis functions...

   type   atoms  prim   cont   basis
   ---------------------------------------------------------------------------
    c        9     72     48   def2-SVP   [6s5p4d1f|8s6p5d3f]
    o        3     72     48   def2-SVP   [6s5p4d1f|8s6p5d3f]
    n        1     72     48   def2-SVP   [6s5p4d1f|8s6p5d3f]
    h       11     23     14   def2-SVP   [3s2p1d|4s3p2d]
   ---------------------------------------------------------------------------
   total:   24   1189    778
   ---------------------------------------------------------------------------

   total number of primitive shells          :   75
   total number of contracted shells         :  274
   total number of cartesian basis functions :  880
   total number of SCF-basis functions       :  778


 symmetry group of the molecule :   c1 

 the group has the following generators :
   c1(z)

    1 symmetry operations found

 there are 1 real representations :   a   

 maximum number of shells which are related by symmetry :  1


 The symmetry information takes   1 MB

*---------------------------------------------------------------------*
|               simplified C1 algorithm will be applied               |
*---------------------------------------------------------------------*
  MOs are in ASCII format !


 reading orbital data $scfmo  from file mos . 

 orbital characterization : scfconv=7
 

         --------------------------------------------------------------
                   checking mo's by calculating trace(D*S)

              number of electrons : 
                 from trace(D*S)         :   96.000000000012
                 from occupation numbers :   96.000000000000

              molecular charge           :    0.000000000000
         --------------------------------------------------------------

 time elapsed for calculating density matrices :   0.020 sec



              +--------------------------------------------+
              | list of orbitals that will be kept frozen: |
              +--------------------------------------------+
              |   irrep   index      energy     occ/vir    |
              +--------------------------------------------+
              |   a         1      -20.5884     occupied   |
              |   a         2      -20.5832     occupied   |
              |   a         3      -20.5259     occupied   |
              |   a         4      -15.5821     occupied   |
              |   a         5      -11.3743     occupied   |
              |   a         6      -11.3125     occupied   |
              |   a         7      -11.2927     occupied   |
              |   a         8      -11.2551     occupied   |
              |   a         9      -11.2506     occupied   |
              |   a        10      -11.2504     occupied   |
              |   a        11      -11.2474     occupied   |
              |   a        12      -11.2465     occupied   |
              |   a        13      -11.2425     occupied   |
              +--------------------------------------------+



   Molecular Orbital Statistic:
   ============================

   -----------------------------
   orbitals in total:
   -----------------------------
    frozen occupied :     13
    active occupied :     35
    active virtual  :    189
    frozen virtual  :      0
    all together    :    237
   -----------------------------


     time in riccmos       cpu:  0.18 sec    wall:  0.04 sec    ratio:  4.0

     total memory allocated for calculation of (Q|P)**(-1/2) : 7 MiB


     calculation of (P|Q) ...
     time in lp2sym        cpu:  0.07 sec    wall:  0.02 sec    ratio:  3.9


     calculation of the Cholesky decomposition of (P|Q)**(-1) ...
     time in invmetri      cpu:  0.24 sec    wall:  0.06 sec    ratio:  4.0

   threshold for RMS(d[D]) in SCF was     :  0.10E-06
   integral neglect threshold             :  0.13E-10
   derivative integral neglect threshold  :  0.10E-07


 setting up bound for integral derivative estimation

 increment for numerical differentiation : 0.00050000

   =========================================================================

     Energy of reference wave function is  -625.7995470979999
     Maximum orbital residual is           0.1547384853275E-05


     Number of symmetry-nonredundant auxiliary basis functions:      778

     Block lengths for integral files:
        frozen occupied (BOI):        1 MiB
        active occupied (BJI):        1 MiB
        active virtual  (BAI):        2 MiB
        frozen virtual  (BGI):        0 MiB
               general  (BTI):        2 MiB

   =========================================================================




   **************************************************************************
   *                                                                        *
   *          OPTIMIZATION OF THE GROUND STATE CLUSTER AMPLITUDES           *
   *                                                                        *
   **************************************************************************


   Iter.   MP2 energy       Norm(Omega)    Norm(t1)  Norm(t2)     cpu    wall
   ...........................................................................
    1   -627.7107910786    0.1231199969     0.00000   0.46648    0.12    0.03
   ...........................................................................


     time in total         cpu:  7.11 sec    wall:  1.78 sec    ratio:  4.0


     **********************************************************************
     *                                                                    *
     *   RHF  energy                             :   -625.7995470980      *
     *   MP2 correlation energy                  :     -1.9112439806      *
     *                                                                    *
     *   Final MP2 energy                        :   -627.7107910786      *
     *                                                                    *
     *   Norm of MP1 T2 amplitudes               :      0.4664814527      *
     *                                                                    *
     *   D1 diagnostic                           :      0.0473            *
     *                                                                    *
     **********************************************************************



 **************************************************************
 *                                                            *
 *    OPTIMIZATION OF THE EXCITED STATE CLUSTER AMPLITUDES    *
 *                                                            *
 **************************************************************


  preoptimize excitation energies/vectors using CCS:
  ==================================================


 ======== LINEAR CC RESPONSE SOLVER ========

    threshold for convergence: 0.10E-02
    maximum number of simultaneous jacoby matrix transformations:  6
                                                
     summary of start vectors generation:
     -------------------------------------------
     type of solution vectors      : RE0
     symmetry                      : a  
     number of vectors requested   :     6
     number of vectors generated   :     6
       -- guessed as rhs/(e_a-e_i) :     6
     -------------------------------------------
                                                

    Iter  #Vectors  time (min)    max. residual 
    --------------------------------------------
      1       6         0.02     0.17E+00  (  6)
      2       6         0.02     0.42E-01  (  2)
      3       6         0.02     0.29E-01  (  6)
      4       6         0.02     0.52E-01  (  6)
      5       6         0.02     0.11E+00  (  3)
      6       4         0.02     0.48E-01  (  3)
      7       4         0.02     0.19E-01  (  3)
      8       4         0.02     0.72E-02  (  3)
      9       2         0.01     0.29E-02  (  3)
     10       1         0.01     0.91E-03  (  3)
    --------------------------------------------
    converged in 10 iterations

         Total time          0.20 minutes


 ===========================================




 ======== LINEAR CC RESPONSE SOLVER ========

    threshold for convergence: 0.10E-02
    maximum number of simultaneous jacoby matrix transformations:  7
                                                
     summary of start vectors generation:
     -------------------------------------------
     type of solution vectors      : RE0
     symmetry                      : a  
     number of vectors requested   :     7
     number of vectors generated   :     7
       -- guessed as rhs/(e_a-e_i) :     7
     -------------------------------------------
                                                

    Iter  #Vectors  time (min)    max. residual 
    --------------------------------------------
      1       7         0.03     0.14E+00  (  1)
      2       7         0.03     0.48E-01  (  7)
      3       7         0.03     0.47E-01  (  7)
      4       7         0.03     0.92E-01  (  7)
      5       7         0.03     0.86E-01  (  5)
      6       4         0.02     0.41E-01  (  5)
      7       4         0.02     0.15E-01  (  4)
      8       4         0.02     0.20E-01  (  7)
      9       4         0.02     0.88E-01  (  6)
     10       3         0.02     0.37E-01  (  6)
     11       3         0.02     0.13E-01  (  6)
     12       2         0.01     0.56E-02  (  6)
     13       1         0.01     0.19E-02  (  6)
     14       1         0.01     0.59E-03  (  6)
    --------------------------------------------
    converged in 14 iterations

         Total time          0.29 minutes


 ===========================================




 Note that this is the intermediate result of a preoptimization!
 The convergence threshold was  0.1E-02 only!


 +==================================================================+
 | sym | multi | state |          CCS excitation energies           |
 |     |       |       +--------------------------------------------+
 |     |       |       |   Hartree    |     eV       |     cm-1     |
 +==================================================================+
 | a   |   1   |   1   |    0.2184247 |      5.94364 |    47938.687 |
 | a   |   1   |   2   |    0.2306918 |      6.27744 |    50631.002 |
 | a   |   1   |   3   |    0.2443705 |      6.64966 |    53633.133 |
 | a   |   1   |   4   |    0.2967311 |      8.07446 |    65124.946 |
 | a   |   1   |   5   |    0.3004786 |      8.17644 |    65947.434 |
 | a   |   1   |   6   |    0.3042989 |      8.28039 |    66785.885 |
 +-----+-------+-------+--------------+--------------+--------------+
 | a   |   3   |   1   |    0.1250246 |      3.40209 |    27439.729 |
 | a   |   3   |   2   |    0.1667791 |      4.53829 |    36603.781 |
 | a   |   3   |   3   |    0.1805821 |      4.91389 |    39633.200 |
 | a   |   3   |   4   |    0.2207165 |      6.00600 |    48441.669 |
 | a   |   3   |   5   |    0.2216255 |      6.03074 |    48641.171 |
 | a   |   3   |   6   |    0.2245200 |      6.10950 |    49276.453 |
 | a   |   3   |   7   |    0.2828274 |      7.69612 |    62073.429 |
 +==================================================================+




  preoptimize ADC(2) excitation energies/vectors using a quasi linear algorithm:
  ==============================================================================


 ======== LINEAR CC RESPONSE SOLVER ========

    threshold for convergence: 0.10E-02
    maximum number of simultaneous jacoby matrix transformations:  6
                                                
     summary of start vectors generation:
     -------------------------------------------
     type of solution vectors      : RE0
     symmetry                      : a  
     number of vectors requested   :     6
     number of vectors generated   :     6
       -- restarted from file      :     6
     -------------------------------------------
                                                

    Iter  #Vectors  time (min)    max. residual 
    --------------------------------------------
 threshold for this macro iteration:  3.300321297932812E-002
      1       6         0.19     0.71E-01  (  2)
 ...adapted threshold to:  3.879433126792650E-002
      2       5         0.16     0.32E-01  (  3)
                                                
     summary of start vectors generation:
     -------------------------------------------
     type of solution vectors      : RE0
     symmetry                      : a  
     number of vectors requested   :     5
     number of vectors generated   :     5
       -- restarted from file      :     5
     -------------------------------------------
                                                

    Iter  #Vectors  time (min)    max. residual 
    --------------------------------------------
 threshold for this macro iteration:  4.052515808108142E-003
      3       5         0.16     0.31E-01  (  3)
      4       5         0.17     0.17E-01  (  5)
      5       5         0.16     0.92E-02  (  5)
      6       3         0.11     0.47E-02  (  4)
      7       2         0.08     0.54E-02  (  4)
      8       2         0.08     0.62E-02  (  4)
      9       2         0.08     0.64E-02  (  4)
     10       2         0.08     0.46E-02  (  5)
     11       1         0.05     0.30E-02  (  4)
                                                
     summary of start vectors generation:
     -------------------------------------------
     type of solution vectors      : RE0
     symmetry                      : a  
     number of vectors requested   :     5
     number of vectors generated   :     5
       -- restarted from file      :     5
     -------------------------------------------
                                                

    Iter  #Vectors  time (min)    max. residual 
    --------------------------------------------
 threshold for this macro iteration:  1.000000000000000E-003
     12       5         0.16     0.11E-02  (  5)
     13       2         0.08     0.15E-02  (  5)
     14       2         0.08     0.15E-02  (  5)
     15       2         0.08     0.10E-02  (  5)
     16       1         0.05     0.97E-03  (  4)
    --------------------------------------------
    converged in 16 iterations

         Total time          1.76 minutes


 ===========================================




 ======== LINEAR CC RESPONSE SOLVER ========

    threshold for convergence: 0.10E-02
    maximum number of simultaneous jacoby matrix transformations:  7
                                                
     summary of start vectors generation:
     -------------------------------------------
     type of solution vectors      : RE0
     symmetry                      : a  
     number of vectors requested   :     7
     number of vectors generated   :     7
       -- restarted from file      :     7
     -------------------------------------------
                                                

    Iter  #Vectors  time (min)    max. residual 
    --------------------------------------------
 threshold for this macro iteration:  3.587719520607183E-002
      1       7         0.23     0.68E-01  (  4)
      2       6         0.20     0.29E-01  (  6)
                                                
     summary of start vectors generation:
     -------------------------------------------
     type of solution vectors      : RE0
     symmetry                      : a  
     number of vectors requested   :     6
     number of vectors generated   :     6
       -- restarted from file      :     6
     -------------------------------------------
                                                

    Iter  #Vectors  time (min)    max. residual 
    --------------------------------------------
 threshold for this macro iteration:  1.943230066448587E-003
      3       6         0.20     0.29E-01  (  6)
      4       6         0.20     0.15E-01  (  6)
 ...adapted threshold to:  2.082297892704976E-003
      5       6         0.20     0.54E-02  (  6)
 ...adapted threshold to:  2.108349257901404E-003
      6       2         0.08     0.14E-02  (  5)
                                                
     summary of start vectors generation:
     -------------------------------------------
     type of solution vectors      : RE0
     symmetry                      : a  
     number of vectors requested   :     6
     number of vectors generated   :     6
       -- restarted from file      :     6
     -------------------------------------------
                                                

    Iter  #Vectors  time (min)    max. residual 
    --------------------------------------------
 threshold for this macro iteration:  1.000000000000000E-003
      7       6         0.20     0.48E-03  (  5)
    --------------------------------------------
    converged in  7 iterations

         Total time          1.32 minutes


 ===========================================




 Note that this is the intermediate result of a preoptimization!
 The convergence threshold was  0.1E-02 only!


 +==================================================================+
 | sym | multi | state |          ADC(2) excitation energies        |
 |     |       |       +--------------------------------------------+
 |     |       |       |   Hartree    |     eV       |     cm-1     |
 +==================================================================+
 | a   |   1   |   1   |    0.1825907 |      4.96855 |    40074.025 |
 | a   |   1   |   2   |    0.2036719 |      5.54220 |    44700.822 |
 | a   |   1   |   3   |    0.2279914 |      6.20396 |    50038.318 |
 | a   |   1   |   4   |    0.2637550 |      7.17714 |    57887.538 |
 | a   |   1   |   5   |    0.2651041 |      7.21385 |    58183.633 |
 +-----+-------+-------+--------------+--------------+--------------+
 | a   |   3   |   1   |    0.1553776 |      4.22804 |    34101.451 |
 | a   |   3   |   2   |    0.1692008 |      4.60419 |    37135.292 |
 | a   |   3   |   3   |    0.1842426 |      5.01350 |    40436.571 |
 | a   |   3   |   4   |    0.1922009 |      5.23005 |    42183.229 |
 | a   |   3   |   5   |    0.2283366 |      6.21335 |    50114.088 |
 | a   |   3   |   6   |    0.2316398 |      6.30324 |    50839.062 |
 +==================================================================+





  solve for ADC(2) excitation energies/vectors using a DIIS algorithm:
  =================================================================
                                                
     summary of start vectors generation:
     -------------------------------------------
     type of solution vectors      : RE0
     symmetry                      : a  
     number of vectors requested   :     5
     number of vectors generated   :     5
       -- restarted from file      :     5
     -------------------------------------------
                                                


 ========= DIIS CC RESPONSE SOLVER =========

    threshold for convergence:0.10E-05
    max. nb. of DIIS vectors :      30
    maximum number of simultaneous jacoby matrix transformations:  5

    Iter  #Vectors  time (min)   residual
    --------------------------------------
      1       5         0.16     0.47E-03  (  2)    0.27E-03
      2       5         0.16     0.34E-03  (  2)    0.39E-03
      3       5         0.16     0.23E-03  (  5)    0.35E-03
      4       5         0.16     0.21E-03  (  5)    0.46E-03
      5       5         0.17     0.18E-03  (  5)    0.31E-03
      6       5         0.16     0.16E-03  (  4)    0.53E-03
      7       5         0.16     0.13E-03  (  4)    0.31E-03
      8       4         0.14     0.12E-03  (  4)    0.54E-03
      9       4         0.13     0.11E-03  (  4)    0.30E-03
     10       2         0.08     0.10E-03  (  4)    0.46E-03
     11       2         0.08     0.95E-04  (  4)    0.30E-03
     12       2         0.08     0.91E-04  (  4)    0.45E-03
     13       2         0.08     0.88E-04  (  4)    0.31E-03
     14       2         0.08     0.85E-04  (  4)    0.42E-03
     15       2         0.08     0.78E-04  (  4)    0.32E-03
     16       2         0.08     0.66E-04  (  4)    0.46E-03
     17       2         0.08     0.54E-04  (  4)    0.29E-03
     18       2         0.08     0.41E-04  (  4)    0.49E-03
     19       2         0.08     0.31E-04  (  4)    0.31E-03
     20       2         0.08     0.26E-04  (  4)    0.36E-03
     21       2         0.08     0.22E-04  (  4)    0.35E-03
     22       2         0.08     0.19E-04  (  4)    0.33E-03
     23       2         0.08     0.16E-04  (  4)    0.37E-03
     24       2         0.08     0.14E-04  (  4)    0.34E-03
     25       2         0.08     0.11E-04  (  4)    0.39E-03
     26       1         0.05     0.80E-05  (  4)    0.33E-03
     27       1         0.05     0.47E-05  (  4)    0.41E-03
     28       1         0.05     0.24E-05  (  4)    0.34E-03
     29       1         0.05     0.11E-05  (  4)    0.39E-03
     30       1         0.05     0.60E-06  (  4)    0.36E-03
    --------------------------------------
    converged in  30 iterations

   Total time          2.91 minutes


 ===========================================


                                                
     summary of start vectors generation:
     -------------------------------------------
     type of solution vectors      : RE0
     symmetry                      : a  
     number of vectors requested   :     6
     number of vectors generated   :     6
       -- restarted from file      :     6
     -------------------------------------------
                                                


 ========= DIIS CC RESPONSE SOLVER =========

    threshold for convergence:0.10E-05
    max. nb. of DIIS vectors :      30
    maximum number of simultaneous jacoby matrix transformations:  6

    Iter  #Vectors  time (min)   residual
    --------------------------------------
      1       6         0.20     0.28E-03  (  5)    0.29E-03
      2       6         0.20     0.23E-03  (  5)    0.28E-03
      3       6         0.20     0.88E-04  (  5)    0.28E-03
      4       6         0.20     0.51E-04  (  5)    0.28E-03
      5       6         0.20     0.25E-04  (  5)    0.28E-03
      6       6         0.20     0.14E-04  (  5)    0.28E-03
      7       4         0.14     0.82E-05  (  5)    0.28E-03
      8       2         0.08     0.51E-05  (  5)    0.28E-03
      9       2         0.08     0.23E-05  (  5)    0.28E-03
     10       2         0.08     0.12E-05  (  5)    0.28E-03
     11       1         0.05     0.51E-06  (  5)    0.28E-03
    --------------------------------------
    converged in  11 iterations

   Total time          1.65 minutes


 ===========================================





 +================================================================================+
 | sym | multi | state |          ADC(2) excitation energies    |  %t1   |  %t2   |
 |     |       |       +----------------------------------------+--------+--------+
 |     |       |       |   Hartree    |    eV      |    cm-1    |    %   |    %   |
 +================================================================================+
 | a   |   1   |   1   |    0.1826249 |    4.96948 |  40081.526 |  90.32 |   9.68 |
 | a   |   1   |   2   |    0.2036827 |    5.54249 |  44703.186 |  92.57 |   7.43 |
 | a   |   1   |   3   |    0.2279848 |    6.20378 |  50036.876 |  91.88 |   8.12 |
 | a   |   1   |   4   |    0.2637470 |    7.17692 |  57885.765 |  90.99 |   9.01 |
 | a   |   1   |   5   |    0.2651107 |    7.21403 |  58185.065 |  91.58 |   8.42 |
 +-----+-------+-------+--------------+------------+------------+--------+--------+
 | a   |   3   |   1   |    0.1553745 |    4.22795 |  34100.759 |  95.62 |   4.38 |
 | a   |   3   |   2   |    0.1691979 |    4.60411 |  37134.656 |  93.13 |   6.87 |
 | a   |   3   |   3   |    0.1842394 |    5.01341 |  40435.868 |  93.31 |   6.69 |
 | a   |   3   |   4   |    0.1922058 |    5.23019 |  42184.295 |  93.35 |   6.65 |
 | a   |   3   |   5   |    0.2283320 |    6.21323 |  50113.071 |  93.87 |   6.13 |
 | a   |   3   |   6   |    0.2316336 |    6.30307 |  50837.689 |  94.91 |   5.09 |
 +================================================================================+


       Energy:     0.1826249 H      4.96948 eV    40081.526 cm-1

     +=======================================================================+
     | type: RE0                    symmetry: a               state:    1    |
     +-----------------------+-----------------------+-----------------------+
     | occ. orb.  index spin | vir. orb.  index spin |  coeff/|amp|     %    |
     +=======================+=======================+=======================+
     |   48 a       48       |   49 a       49       |   0.85960      73.9   |
     |   47 a       47       |   50 a       50       |   0.43693      19.1   |
     |   47 a       47       |   51 a       51       |   0.12935       1.7   |
     |   48 a       48       |   51 a       51       |  -0.08269       0.7   |
     +=======================+=======================+=======================+
     norm of printed elements:  0.95339


       Energy:     0.2036827 H      5.54249 eV    44703.186 cm-1

     +=======================================================================+
     | type: RE0                    symmetry: a               state:    2    |
     +-----------------------+-----------------------+-----------------------+
     | occ. orb.  index spin | vir. orb.  index spin |  coeff/|amp|     %    |
     +=======================+=======================+=======================+
     |   46 a       46       |   51 a       51       |   0.45456      20.7   |
     |   46 a       46       |   53 a       53       |   0.42995      18.5   |
     |   46 a       46       |   49 a       49       |   0.34492      11.9   |
     |   46 a       46       |   54 a       54       |   0.34273      11.7   |
     |   44 a       44       |   53 a       53       |  -0.22284       5.0   |
     |   44 a       44       |   51 a       51       |  -0.20723       4.3   |
     |   44 a       44       |   54 a       54       |  -0.18953       3.6   |
     |   46 a       46       |   55 a       55       |   0.18202       3.3   |
     |   46 a       46       |   56 a       56       |  -0.17654       3.1   |
     |   44 a       44       |   49 a       49       |  -0.14540       2.1   |
     |   46 a       46       |   57 a       57       |  -0.13282       1.8   |
     |   44 a       44       |   55 a       55       |  -0.10278       1.1   |
     |   44 a       44       |   56 a       56       |   0.09420       0.9   |
     |   40 a       40       |   53 a       53       |  -0.08987       0.8   |
     |   40 a       40       |   51 a       51       |  -0.08238       0.7   |
     |   46 a       46       |   60 a       60       |  -0.07824       0.6   |
     |   44 a       44       |   57 a       57       |   0.07663       0.6   |
     |   40 a       40       |   54 a       54       |  -0.07505       0.6   |
     |   41 a       41       |   53 a       53       |  -0.06779       0.5   |
     |   46 a       46       |   63 a       63       |  -0.06408       0.4   |
     +=======================+=======================+=======================+
     norm of printed elements:  0.92015


       Energy:     0.2279848 H      6.20378 eV    50036.876 cm-1

     +=======================================================================+
     | type: RE0                    symmetry: a               state:    3    |
     +-----------------------+-----------------------+-----------------------+
     | occ. orb.  index spin | vir. orb.  index spin |  coeff/|amp|     %    |
     +=======================+=======================+=======================+
     |   48 a       48       |   50 a       50       |   0.86010      74.0   |
     |   47 a       47       |   49 a       49       |  -0.36238      13.1   |
     |   48 a       48       |   51 a       51       |   0.22113       4.9   |
     |   43 a       43       |   50 a       50       |  -0.14324       2.1   |
     |   36 a       36       |   50 a       50       |   0.10742       1.2   |
     +=======================+=======================+=======================+
     norm of printed elements:  0.95206


       Energy:     0.2637470 H      7.17692 eV    57885.765 cm-1

     +=======================================================================+
     | type: RE0                    symmetry: a               state:    4    |
     +-----------------------+-----------------------+-----------------------+
     | occ. orb.  index spin | vir. orb.  index spin |  coeff/|amp|     %    |
     +=======================+=======================+=======================+
     |   47 a       47       |   50 a       50       |   0.56792      32.3   |
     |   47 a       47       |   49 a       49       |   0.52455      27.5   |
     |   48 a       48       |   49 a       49       |  -0.35372      12.5   |
     |   48 a       48       |   50 a       50       |   0.23349       5.5   |
     |   46 a       46       |   49 a       49       |  -0.21390       4.6   |
     |   43 a       43       |   49 a       49       |   0.15853       2.5   |
     |   47 a       47       |   51 a       51       |   0.14617       2.1   |
     |   48 a       48       |   52 a       52       |  -0.13728       1.9   |
     |   48 a       48       |   51 a       51       |  -0.13305       1.8   |
     |   46 a       46       |   50 a       50       |   0.11774       1.4   |
     |   36 a       36       |   49 a       49       |  -0.08377       0.7   |
     |   36 a       36       |   50 a       50       |   0.06628       0.4   |
     |   44 a       44       |   51 a       51       |  -0.06306       0.4   |
     |   43 a       43       |   50 a       50       |  -0.06149       0.4   |
     |   48 a       48       |   54 a       54       |  -0.05682       0.3   |
     |   44 a       44       |   53 a       53       |  -0.04993       0.2   |
     |   46 a       46       |   54 a       54       |   0.04651       0.2   |
     |   47 a       47       |   54 a       54       |  -0.04602       0.2   |
     |   43 a       43       |   52 a       52       |   0.04015       0.2   |
     +=======================+=======================+=======================+
     norm of printed elements:  0.95076


       Energy:     0.2651107 H      7.21403 eV    58185.065 cm-1

     +=======================================================================+
     | type: RE0                    symmetry: a               state:    5    |
     +-----------------------+-----------------------+-----------------------+
     | occ. orb.  index spin | vir. orb.  index spin |  coeff/|amp|     %    |
     +=======================+=======================+=======================+
     |   47 a       47       |   49 a       49       |   0.69979      49.0   |
     |   47 a       47       |   50 a       50       |  -0.48910      23.9   |
     |   48 a       48       |   49 a       49       |   0.22798       5.2   |
     |   48 a       48       |   50 a       50       |   0.22796       5.2   |
     |   47 a       47       |   51 a       51       |  -0.18839       3.5   |
     |   43 a       43       |   49 a       49       |  -0.14796       2.2   |
     |   46 a       46       |   50 a       50       |   0.12336       1.5   |
     |   48 a       48       |   52 a       52       |   0.11369       1.3   |
     |   48 a       48       |   51 a       51       |   0.09198       0.8   |
     |   46 a       46       |   49 a       49       |  -0.08436       0.7   |
     |   36 a       36       |   49 a       49       |   0.08361       0.7   |
     |   48 a       48       |   53 a       53       |   0.06636       0.4   |
     |   36 a       36       |   50 a       50       |   0.05261       0.3   |
     |   43 a       43       |   50 a       50       |  -0.04712       0.2   |
     |   38 a       38       |   49 a       49       |  -0.04697       0.2   |
     +=======================+=======================+=======================+
     norm of printed elements:  0.95256


       Energy:     0.1553745 H      4.22795 eV    34100.759 cm-1

     +=======================================================================+
     | type: RE0                    symmetry: a               state:    1    |
     +-----------------------+-----------------------+-----------------------+
     | occ. orb.  index spin | vir. orb.  index spin |  coeff/|amp|     %    |
     +=======================+=======================+=======================+
     |   48 a       48       |   50 a       50       |   0.72187      52.1   |
     |   47 a       47       |   49 a       49       |  -0.54725      29.9   |
     |   48 a       48       |   49 a       49       |   0.22524       5.1   |
     |   48 a       48       |   51 a       51       |   0.20915       4.4   |
     |   48 a       48       |   55 a       55       |  -0.11011       1.2   |
     |   43 a       43       |   63 a       63       |   0.10607       1.1   |
     |   43 a       43       |   64 a       64       |  -0.07776       0.6   |
     |   47 a       47       |   53 a       53       |   0.07151       0.5   |
     |   47 a       47       |   54 a       54       |   0.06234       0.4   |
     +=======================+=======================+=======================+
     norm of printed elements:  0.95348


       Energy:     0.1691979 H      4.60411 eV    37134.656 cm-1

     +=======================================================================+
     | type: RE0                    symmetry: a               state:    2    |
     +-----------------------+-----------------------+-----------------------+
     | occ. orb.  index spin | vir. orb.  index spin |  coeff/|amp|     %    |
     +=======================+=======================+=======================+
     |   48 a       48       |   49 a       49       |   0.91787      84.2   |
     |   47 a       47       |   50 a       50       |  -0.23426       5.5   |
     |   48 a       48       |   50 a       50       |  -0.17436       3.0   |
     |   48 a       48       |   51 a       51       |  -0.13750       1.9   |
     |   47 a       47       |   49 a       49       |   0.09012       0.8   |
     +=======================+=======================+=======================+
     norm of printed elements:  0.95480


       Energy:     0.1842394 H      5.01341 eV    40435.868 cm-1

     +=======================================================================+
     | type: RE0                    symmetry: a               state:    3    |
     +-----------------------+-----------------------+-----------------------+
     | occ. orb.  index spin | vir. orb.  index spin |  coeff/|amp|     %    |
     +=======================+=======================+=======================+
     |   47 a       47       |   49 a       49       |   0.78989      62.4   |
     |   48 a       48       |   50 a       50       |   0.54450      29.6   |
     |   48 a       48       |   51 a       51       |   0.16938       2.9   |
     |   47 a       47       |   53 a       53       |  -0.09279       0.9   |
     +=======================+=======================+=======================+
     norm of printed elements:  0.95769


       Energy:     0.1922058 H      5.23019 eV    42184.295 cm-1

     +=======================================================================+
     | type: RE0                    symmetry: a               state:    4    |
     +-----------------------+-----------------------+-----------------------+
     | occ. orb.  index spin | vir. orb.  index spin |  coeff/|amp|     %    |
     +=======================+=======================+=======================+
     |   46 a       46       |   51 a       51       |   0.45434      20.6   |
     |   46 a       46       |   53 a       53       |   0.43153      18.6   |
     |   46 a       46       |   54 a       54       |   0.34996      12.2   |
     |   46 a       46       |   49 a       49       |   0.32272      10.4   |
     |   44 a       44       |   53 a       53       |  -0.22369       5.0   |
     |   44 a       44       |   51 a       51       |  -0.20750       4.3   |
     |   44 a       44       |   54 a       54       |  -0.19379       3.8   |
     |   46 a       46       |   56 a       56       |  -0.18391       3.4   |
     |   46 a       46       |   55 a       55       |   0.18369       3.4   |
     |   46 a       46       |   57 a       57       |  -0.14201       2.0   |
     |   44 a       44       |   49 a       49       |  -0.14092       2.0   |
     |   44 a       44       |   55 a       55       |  -0.10323       1.1   |
     |   44 a       44       |   56 a       56       |   0.09881       1.0   |
     |   40 a       40       |   53 a       53       |  -0.08416       0.7   |
     |   46 a       46       |   60 a       60       |  -0.08246       0.7   |
     |   44 a       44       |   57 a       57       |   0.08194       0.7   |
     |   40 a       40       |   51 a       51       |  -0.07708       0.6   |
     |   40 a       40       |   54 a       54       |  -0.07343       0.5   |
     |   46 a       46       |   63 a       63       |  -0.06791       0.5   |
     |   41 a       41       |   53 a       53       |  -0.06436       0.4   |
     +=======================+=======================+=======================+
     norm of printed elements:  0.91861


       Energy:     0.2283320 H      6.21323 eV    50113.071 cm-1

     +=======================================================================+
     | type: RE0                    symmetry: a               state:    5    |
     +-----------------------+-----------------------+-----------------------+
     | occ. orb.  index spin | vir. orb.  index spin |  coeff/|amp|     %    |
     +=======================+=======================+=======================+
     |   47 a       47       |   50 a       50       |   0.90064      81.1   |
     |   47 a       47       |   51 a       51       |   0.26370       7.0   |
     |   48 a       48       |   49 a       49       |   0.23103       5.3   |
     |   43 a       43       |   49 a       49       |  -0.15708       2.5   |
     +=======================+=======================+=======================+
     norm of printed elements:  0.95873


       Energy:     0.2316336 H      6.30307 eV    50837.689 cm-1

     +=======================================================================+
     | type: RE0                    symmetry: a               state:    6    |
     +-----------------------+-----------------------+-----------------------+
     | occ. orb.  index spin | vir. orb.  index spin |  coeff/|amp|     %    |
     +=======================+=======================+=======================+
     |   45 a       45       |   53 a       53       |   0.48666      23.7   |
     |   45 a       45       |   51 a       51       |   0.46924      22.0   |
     |   45 a       45       |   54 a       54       |   0.41801      17.5   |
     |   45 a       45       |   49 a       49       |   0.32449      10.5   |
     |   45 a       45       |   55 a       55       |   0.22868       5.2   |
     |   45 a       45       |   56 a       56       |  -0.21714       4.7   |
     |   45 a       45       |   57 a       57       |  -0.18321       3.4   |
     |   45 a       45       |   60 a       60       |  -0.10227       1.0   |
     |   45 a       45       |   63 a       63       |  -0.09566       0.9   |
     |   42 a       42       |   53 a       53       |   0.08695       0.8   |
     |   42 a       42       |   51 a       51       |   0.07892       0.6   |
     |   42 a       42       |   54 a       54       |   0.07481       0.6   |
     |   45 a       45       |   58 a       58       |   0.06986       0.5   |
     |   45 a       45       |   62 a       62       |  -0.06616       0.4   |
     |   45 a       45       |   61 a       61       |   0.06390       0.4   |
     |   44 a       44       |   51 a       51       |  -0.05795       0.3   |
     |   45 a       45       |   66 a       66       |  -0.05707       0.3   |
     |   44 a       44       |   53 a       53       |  -0.05652       0.3   |
     |   45 a       45       |   65 a       65       |   0.05601       0.3   |
     |   41 a       41       |   53 a       53       |   0.05269       0.3   |
     +=======================+=======================+=======================+
     norm of printed elements:  0.93812



     Info: copy ADC(2) right eigenvectors into left eigenvector files.


                    ========   CC DENSITY MODULE   ========

                      current wave-function model: ADC(2)  

  calculating overlap between   11 left and right vector(s)
    density nr.      cpu/min        wall/min    L     R
   ------------------------------------------------------
         1             0.15            0.04    LE0    RE0 
         2             0.15            0.04    LE0    RE0 
         3             0.15            0.04    LE0    RE0 
         4             0.14            0.04    LE0    RE0 
         5             0.14            0.04    LE0    RE0 
         6             0.15            0.04    LE0    RE0 
         7             0.15            0.04    LE0    RE0 
         8             0.15            0.04    LE0    RE0 
         9             0.15            0.04    LE0    RE0 
        10             0.15            0.04    LE0    RE0 
        11             0.15            0.04    LE0    RE0 
   ------------------------------------------------------
     time in cc_1den       cpu:  1 min 38 s  wall:  0 min 25 s  ratio:  4.0



     +==========================================================+
     |   contributions of excitation levels to excited states   |
     |     wavefunctions as computed from the <L|R> overlap     |
     +----------------------------------------------------------+
     | sym | multi | state |    E / eV  | % singles | % doubles |
     +==========================================================+
     | a   |   1   |   1   |    4.96948 |   90.32   |    9.68   |
     | a   |   1   |   2   |    5.54249 |   92.57   |    7.43   |
     | a   |   1   |   3   |    6.20378 |   91.88   |    8.12   |
     | a   |   1   |   4   |    7.17692 |   90.99   |    9.01   |
     | a   |   1   |   5   |    7.21403 |   91.58   |    8.42   |
     +-----+-------+-------+------------+-----------+-----------+
     | a   |   3   |   1   |    4.22795 |   95.62   |    4.38   |
     | a   |   3   |   2   |    4.60411 |   93.13   |    6.87   |
     | a   |   3   |   3   |    5.01341 |   93.31   |    6.69   |
     | a   |   3   |   4   |    5.23019 |   93.35   |    6.65   |
     | a   |   3   |   5   |    6.21323 |   93.87   |    6.13   |
     | a   |   3   |   6   |    6.30307 |   94.91   |    5.09   |
     +==========================================================+




   **************************************************************************
   **************************************************************************
   **                                                                      **
   **          CALCULATION OF COUPLED CLUSTER RESPONSE PROPERTIES          **
   **                                                                      **
   **************************************************************************
   **************************************************************************

      The semi-canonical algorithm will be used for densities


                    ========   CC DENSITY MODULE   ========

                      current wave-function model: ADC(2)  

  calculating    11 xi densities

   a semicanonical algorithm will be used when possible

    density nr.      cpu/min        wall/min    L     R
   ------------------------------------------------------
         1             0.23            0.06    LE0    R0  
         2             0.22            0.06    LE0    R0  
         3             0.21            0.05    LE0    R0  
         4             0.22            0.06    LE0    R0  
         5             0.22            0.06    LE0    R0  
         6             0.22            0.06    LE0    R0  
         7             0.22            0.06    LE0    R0  
         8             0.23            0.06    LE0    R0  
         9             0.23            0.06    LE0    R0  
        10             0.22            0.06    LE0    R0  
        11             0.23            0.06    LE0    R0  
   ------------------------------------------------------
     time in cc_1den       cpu:  2 min 29 s  wall:  0 min 38 s  ratio:  3.9


                    ========   CC DENSITY MODULE   ========

                      current wave-function model: ADC(2)  

  calculating   110 A densities

   a semicanonical algorithm will be used when possible

    density nr.      cpu/min        wall/min    L     R
   ------------------------------------------------------
         1             0.37            0.10    LE0    RE0 
         2             0.37            0.10    LE0    RE0 
         3             0.37            0.10    LE0    RE0 
         4             0.38            0.10    LE0    RE0 
         5             0.40            0.11    LE0    RE0 
         6             0.40            0.11    LE0    RE0 
         7             0.40            0.11    LE0    RE0 
         8             0.40            0.11    LE0    RE0 
         9             0.40            0.11    LE0    RE0 
        10             0.38            0.10    LE0    RE0 
        11             0.37            0.10    LE0    RE0 
        12             0.37            0.10    LE0    RE0 
        13             0.36            0.10    LE0    RE0 
        14             0.38            0.10    LE0    RE0 
        15             0.40            0.11    LE0    RE0 
        16             0.40            0.11    LE0    RE0 
        17             0.40            0.11    LE0    RE0 
        18             0.39            0.11    LE0    RE0 
        19             0.39            0.11    LE0    RE0 
        20             0.39            0.11    LE0    RE0 
        21             0.37            0.10    LE0    RE0 
        22             0.37            0.10    LE0    RE0 
        23             0.37            0.10    LE0    RE0 
        24             0.37            0.10    LE0    RE0 
        25             0.38            0.10    LE0    RE0 
        26             0.38            0.10    LE0    RE0 
        27             0.40            0.11    LE0    RE0 
        28             0.40            0.11    LE0    RE0 
        29             0.41            0.11    LE0    RE0 
        30             0.41            0.11    LE0    RE0 
        31             0.39            0.10    LE0    RE0 
        32             0.38            0.10    LE0    RE0 
        33             0.37            0.10    LE0    RE0 
        34             0.38            0.10    LE0    RE0 
        35             0.37            0.10    LE0    RE0 
        36             0.39            0.10    LE0    RE0 
        37             0.41            0.11    LE0    RE0 
        38             0.40            0.11    LE0    RE0 
        39             0.39            0.10    LE0    RE0 
        40             0.39            0.10    LE0    RE0 
        41             0.39            0.10    LE0    RE0 
        42             0.37            0.10    LE0    RE0 
        43             0.38            0.10    LE0    RE0 
        44             0.37            0.10    LE0    RE0 
        45             0.39            0.11    LE0    RE0 
        46             0.39            0.11    LE0    RE0 
        47             0.40            0.11    LE0    RE0 
        48             0.40            0.11    LE0    RE0 
        49             0.40            0.11    LE0    RE0 
        50             0.40            0.11    LE0    RE0 
        51             0.38            0.10    LE0    RE0 
        52             0.39            0.10    LE0    RE0 
        53             0.38            0.10    LE0    RE0 
        54             0.37            0.10    LE0    RE0 
        55             0.36            0.10    LE0    RE0 
        56             0.36            0.10    LE0    RE0 
        57             0.37            0.10    LE0    RE0 
        58             0.40            0.11    LE0    RE0 
        59             0.40            0.11    LE0    RE0 
        60             0.40            0.11    LE0    RE0 
        61             0.39            0.11    LE0    RE0 
        62             0.40            0.11    LE0    RE0 
        63             0.41            0.11    LE0    RE0 
        64             0.40            0.10    LE0    RE0 
        65             0.38            0.10    LE0    RE0 
        66             0.37            0.10    LE0    RE0 
        67             0.38            0.10    LE0    RE0 
        68             0.37            0.10    LE0    RE0 
        69             0.40            0.11    LE0    RE0 
        70             0.40            0.11    LE0    RE0 
        71             0.39            0.11    LE0    RE0 
        72             0.39            0.11    LE0    RE0 
        73             0.40            0.11    LE0    RE0 
        74             0.40            0.11    LE0    RE0 
        75             0.39            0.10    LE0    RE0 
        76             0.38            0.10    LE0    RE0 
        77             0.37            0.10    LE0    RE0 
        78             0.37            0.10    LE0    RE0 
        79             0.38            0.10    LE0    RE0 
        80             0.40            0.11    LE0    RE0 
        81             0.40            0.11    LE0    RE0 
        82             0.41            0.11    LE0    RE0 
        83             0.42            0.11    LE0    RE0 
        84             0.42            0.11    LE0    RE0 
        85             0.40            0.11    LE0    RE0 
        86             0.39            0.10    LE0    RE0 
        87             0.38            0.10    LE0    RE0 
        88             0.39            0.10    LE0    RE0 
        89             0.39            0.10    LE0    RE0 
        90             0.40            0.11    LE0    RE0 
        91             0.41            0.11    LE0    RE0 
        92             0.41            0.11    LE0    RE0 
        93             0.42            0.11    LE0    RE0 
        94             0.42            0.11    LE0    RE0 
        95             0.43            0.12    LE0    RE0 
        96             0.43            0.11    LE0    RE0 
        97             0.40            0.10    LE0    RE0 
        98             0.39            0.10    LE0    RE0 
        99             0.39            0.10    LE0    RE0 
       100             0.39            0.10    LE0    RE0 
       101             0.41            0.11    LE0    RE0 
       102             0.41            0.11    LE0    RE0 
       103             0.42            0.11    LE0    RE0 
       104             0.42            0.11    LE0    RE0 
       105             0.42            0.11    LE0    RE0 
       106             0.42            0.11    LE0    RE0 
       107             0.39            0.10    LE0    RE0 
       108             0.38            0.10    LE0    RE0 
       109             0.38            0.10    LE0    RE0 
       110             0.39            0.10    LE0    RE0 
   ------------------------------------------------------
     time in cc_1den       cpu: 43 min 23 s  wall: 11 min 35 s  ratio:  3.7


 **************************************************************
 *                                                            *
 *<<<<<<<<<<<<  ONE-PHOTON ABSORPTION STRENGTHS  >>>>>>>>>>>>>*
 *                                                            *
 **************************************************************



  +=========================================================================+
  |  Transition                                             model: ADC(2)   |
  |    number, symmetry, multiplicity:    1 a    1                          |
  |    frequency :   0.1826248684 a.u.     4.96948 e.V.     40081.5 rcm     |
  +=========================================================================+

     +-----------+-----------------+-----------------+---------------------+
     | operator  |   left moment   |  right moment   | transition strength |
     +-----------+-----------------+-----------------+---------------------+
     | xdiplen   |      0.34892177 |      0.34892177 |       0.12174640    |
     | ydiplen   |     -0.17130495 |     -0.17130495 |       0.02934539    |
     | zdiplen   |      0.29873155 |      0.29873155 |       0.08924054    |
     +-----------+-----------------+-----------------+---------------------+
 
       oscillator strength (length gauge)   :      0.02926044
 
 


  +=========================================================================+
  |  Transition                                             model: ADC(2)   |
  |    number, symmetry, multiplicity:    2 a    1                          |
  |    frequency :   0.2036827036 a.u.     5.54249 e.V.     44703.2 rcm     |
  +=========================================================================+

     +-----------+-----------------+-----------------+---------------------+
     | operator  |   left moment   |  right moment   | transition strength |
     +-----------+-----------------+-----------------+---------------------+
     | xdiplen   |      0.06386463 |      0.06386463 |       0.00407869    |
     | ydiplen   |      0.05582957 |      0.05582957 |       0.00311694    |
     | zdiplen   |     -0.13623077 |     -0.13623077 |       0.01855882    |
     +-----------+-----------------+-----------------+---------------------+
 
       oscillator strength (length gauge)   :      0.00349716
 
 


  +=========================================================================+
  |  Transition                                             model: ADC(2)   |
  |    number, symmetry, multiplicity:    3 a    1                          |
  |    frequency :   0.2279847840 a.u.     6.20378 e.V.     50036.9 rcm     |
  +=========================================================================+

     +-----------+-----------------+-----------------+---------------------+
     | operator  |   left moment   |  right moment   | transition strength |
     +-----------+-----------------+-----------------+---------------------+
     | xdiplen   |      0.64074217 |      0.64074217 |       0.41055053    |
     | ydiplen   |     -0.22799043 |     -0.22799043 |       0.05197964    |
     | zdiplen   |     -0.89793119 |     -0.89793119 |       0.80628043    |
     +-----------+-----------------+-----------------+---------------------+
 
       oscillator strength (length gauge)   :      0.19284634
 
 


  +=========================================================================+
  |  Transition                                             model: ADC(2)   |
  |    number, symmetry, multiplicity:    4 a    1                          |
  |    frequency :   0.2637469520 a.u.     7.17692 e.V.     57885.8 rcm     |
  +=========================================================================+

     +-----------+-----------------+-----------------+---------------------+
     | operator  |   left moment   |  right moment   | transition strength |
     +-----------+-----------------+-----------------+---------------------+
     | xdiplen   |      0.03773239 |      0.03773239 |       0.00142373    |
     | ydiplen   |      0.22037014 |      0.22037014 |       0.04856300    |
     | zdiplen   |     -1.66884227 |     -1.66884227 |       2.78503451    |
     +-----------+-----------------+-----------------+---------------------+
 
       oscillator strength (length gauge)   :      0.49848547
 
 


  +=========================================================================+
  |  Transition                                             model: ADC(2)   |
  |    number, symmetry, multiplicity:    5 a    1                          |
  |    frequency :   0.2651106636 a.u.     7.21403 e.V.     58185.1 rcm     |
  +=========================================================================+

     +-----------+-----------------+-----------------+---------------------+
     | operator  |   left moment   |  right moment   | transition strength |
     +-----------+-----------------+-----------------+---------------------+
     | xdiplen   |      1.48677753 |      1.48677753 |       2.21050741    |
     | ydiplen   |     -0.47093443 |     -0.47093443 |       0.22177924    |
     | zdiplen   |     -0.80153597 |     -0.80153597 |       0.64245991    |
     +-----------+-----------------+-----------------+---------------------+
 
       oscillator strength (length gauge)   :      0.54343207
 
 


  +=========================================================================+
  |  Transition                                             model: ADC(2)   |
  |    number, symmetry, multiplicity:    1 a    3                          |
  |    frequency :   0.1553744903 a.u.     4.22795 e.V.     34100.8 rcm     |
  +=========================================================================+

     +-----------+-----------------+-----------------+---------------------+
     | operator  |   left moment   |  right moment   | transition strength |
     +-----------+-----------------+-----------------+---------------------+
 Transition and Operator of different multiplicity.
 Transition and Operator of different multiplicity.
 Transition and Operator of different multiplicity.
     +-----------+-----------------+-----------------+---------------------+
 
       oscillator strength (length gauge)   :      0.00000000
 
 


  +=========================================================================+
  |  Transition                                             model: ADC(2)   |
  |    number, symmetry, multiplicity:    2 a    3                          |
  |    frequency :   0.1691979447 a.u.     4.60411 e.V.     37134.7 rcm     |
  +=========================================================================+

     +-----------+-----------------+-----------------+---------------------+
     | operator  |   left moment   |  right moment   | transition strength |
     +-----------+-----------------+-----------------+---------------------+
 Transition and Operator of different multiplicity.
 Transition and Operator of different multiplicity.
 Transition and Operator of different multiplicity.
     +-----------+-----------------+-----------------+---------------------+
 
       oscillator strength (length gauge)   :      0.00000000
 
 


  +=========================================================================+
  |  Transition                                             model: ADC(2)   |
  |    number, symmetry, multiplicity:    3 a    3                          |
  |    frequency :   0.1842393704 a.u.     5.01341 e.V.     40435.9 rcm     |
  +=========================================================================+

     +-----------+-----------------+-----------------+---------------------+
     | operator  |   left moment   |  right moment   | transition strength |
     +-----------+-----------------+-----------------+---------------------+
 Transition and Operator of different multiplicity.
 Transition and Operator of different multiplicity.
 Transition and Operator of different multiplicity.
     +-----------+-----------------+-----------------+---------------------+
 
       oscillator strength (length gauge)   :      0.00000000
 
 


  +=========================================================================+
  |  Transition                                             model: ADC(2)   |
  |    number, symmetry, multiplicity:    4 a    3                          |
  |    frequency :   0.1922057900 a.u.     5.23019 e.V.     42184.3 rcm     |
  +=========================================================================+

     +-----------+-----------------+-----------------+---------------------+
     | operator  |   left moment   |  right moment   | transition strength |
     +-----------+-----------------+-----------------+---------------------+
 Transition and Operator of different multiplicity.
 Transition and Operator of different multiplicity.
 Transition and Operator of different multiplicity.
     +-----------+-----------------+-----------------+---------------------+
 
       oscillator strength (length gauge)   :      0.00000000
 
 


  +=========================================================================+
  |  Transition                                             model: ADC(2)   |
  |    number, symmetry, multiplicity:    5 a    3                          |
  |    frequency :   0.2283319528 a.u.     6.21323 e.V.     50113.1 rcm     |
  +=========================================================================+

     +-----------+-----------------+-----------------+---------------------+
     | operator  |   left moment   |  right moment   | transition strength |
     +-----------+-----------------+-----------------+---------------------+
 Transition and Operator of different multiplicity.
 Transition and Operator of different multiplicity.
 Transition and Operator of different multiplicity.
     +-----------+-----------------+-----------------+---------------------+
 
       oscillator strength (length gauge)   :      0.00000000
 
 


  +=========================================================================+
  |  Transition                                             model: ADC(2)   |
  |    number, symmetry, multiplicity:    6 a    3                          |
  |    frequency :   0.2316335539 a.u.     6.30307 e.V.     50837.7 rcm     |
  +=========================================================================+

     +-----------+-----------------+-----------------+---------------------+
     | operator  |   left moment   |  right moment   | transition strength |
     +-----------+-----------------+-----------------+---------------------+
 Transition and Operator of different multiplicity.
 Transition and Operator of different multiplicity.
 Transition and Operator of different multiplicity.
     +-----------+-----------------+-----------------+---------------------+
 
       oscillator strength (length gauge)   :      0.00000000
 
 
 Exporting transition densities


 *************************************************************
 *                                                           *
 *<<<<<<<<<<<  EXCITED STATE TRANSITION MOMENTS  >>>>>>>>>>>>*
 *                                                           *
 *************************************************************

ADC(2)   Transition moments for pair    1 a        2 a   
  operator     left TM        right TM  Transition Strength
  xdiplen      0.017102       0.017102       0.000292
  ydiplen      0.006146       0.006146       0.000038
  zdiplen     -0.023183      -0.023183       0.000537
 Transition and Operator of different multiplicity.
 Transition and Operator of different multiplicity.
 Transition and Operator of different multiplicity.
 
       oscillator strength (length gauge)   :      0.00001218
 
ADC(2)   Transition moments for pair    1 a        3 a   
  operator     left TM        right TM  Transition Strength
  xdiplen      0.036131       0.036131       0.001305
  ydiplen     -0.031560      -0.031560       0.000996
  zdiplen      0.108922       0.108922       0.011864
 Transition and Operator of different multiplicity.
 Transition and Operator of different multiplicity.
 Transition and Operator of different multiplicity.
 
       oscillator strength (length gauge)   :      0.00042836
 
ADC(2)   Transition moments for pair    1 a        4 a   
  operator     left TM        right TM  Transition Strength
  xdiplen      0.107024       0.107024       0.011454
  ydiplen     -0.044928      -0.044928       0.002019
  zdiplen     -0.379281      -0.379281       0.143854
 Transition and Operator of different multiplicity.
 Transition and Operator of different multiplicity.
 Transition and Operator of different multiplicity.
 
       oscillator strength (length gauge)   :      0.00850846
 
ADC(2)   Transition moments for pair    1 a        5 a   
  operator     left TM        right TM  Transition Strength
  xdiplen     -0.320381      -0.320381       0.102644
  ydiplen      0.080623       0.080623       0.006500
  zdiplen      0.435756       0.435756       0.189883
 Transition and Operator of different multiplicity.
 Transition and Operator of different multiplicity.
 Transition and Operator of different multiplicity.
 
       oscillator strength (length gauge)   :      0.01644365
 
ADC(2)   Transition moments for pair    1 a        1 a   
  operator     left TM        right TM  Transition Strength
 Transition and Operator of different multiplicity.
 Transition and Operator of different multiplicity.
 Transition and Operator of different multiplicity.
  xsoc         0.000000      -0.000000      -0.000000
  ysoc         0.000000      -0.000000      -0.000000
  zsoc         0.000002      -0.000002      -0.000000
 
       oscillator strength (length gauge)   :      0.00000000
 
ADC(2)   Transition moments for pair    1 a        2 a   
  operator     left TM        right TM  Transition Strength
 Transition and Operator of different multiplicity.
 Transition and Operator of different multiplicity.
 Transition and Operator of different multiplicity.
  xsoc        -0.000000       0.000000      -0.000000
  ysoc         0.000000      -0.000000      -0.000000
  zsoc        -0.000000       0.000000      -0.000000
 
       oscillator strength (length gauge)   :      0.00000000
 
ADC(2)   Transition moments for pair    1 a        3 a   
  operator     left TM        right TM  Transition Strength
 Transition and Operator of different multiplicity.
 Transition and Operator of different multiplicity.
 Transition and Operator of different multiplicity.
  xsoc        -0.000000       0.000000      -0.000000
  ysoc        -0.000000       0.000000      -0.000000
  zsoc        -0.000000       0.000000      -0.000000
 
       oscillator strength (length gauge)   :      0.00000000
 
ADC(2)   Transition moments for pair    1 a        4 a   
  operator     left TM        right TM  Transition Strength
 Transition and Operator of different multiplicity.
 Transition and Operator of different multiplicity.
 Transition and Operator of different multiplicity.
  xsoc         0.000000      -0.000000      -0.000000
  ysoc         0.000000      -0.000000      -0.000000
  zsoc        -0.000000       0.000000      -0.000000
 
       oscillator strength (length gauge)   :      0.00000000
 
ADC(2)   Transition moments for pair    1 a        5 a   
  operator     left TM        right TM  Transition Strength
 Transition and Operator of different multiplicity.
 Transition and Operator of different multiplicity.
 Transition and Operator of different multiplicity.
  xsoc        -0.000000       0.000000      -0.000000
  ysoc         0.000000      -0.000000      -0.000000
  zsoc        -0.000000       0.000000      -0.000000
 
       oscillator strength (length gauge)   :      0.00000000
 
ADC(2)   Transition moments for pair    1 a        6 a   
  operator     left TM        right TM  Transition Strength
 Transition and Operator of different multiplicity.
 Transition and Operator of different multiplicity.
 Transition and Operator of different multiplicity.
  xsoc         0.000001      -0.000001      -0.000000
  ysoc        -0.000001       0.000001      -0.000000
  zsoc        -0.000001       0.000001      -0.000000
 
       oscillator strength (length gauge)   :      0.00000000
 
ADC(2)   Transition moments for pair    2 a        3 a   
  operator     left TM        right TM  Transition Strength
  xdiplen      0.042471       0.042471       0.001804
  ydiplen      0.011129       0.011129       0.000124
  zdiplen      0.032228       0.032228       0.001039
 Transition and Operator of different multiplicity.
 Transition and Operator of different multiplicity.
 Transition and Operator of different multiplicity.
 
       oscillator strength (length gauge)   :      0.00004806
 
ADC(2)   Transition moments for pair    2 a        4 a   
  operator     left TM        right TM  Transition Strength
  xdiplen     -0.103877      -0.103877       0.010790
  ydiplen     -0.118664      -0.118664       0.014081
  zdiplen      0.114207       0.114207       0.013043
 Transition and Operator of different multiplicity.
 Transition and Operator of different multiplicity.
 Transition and Operator of different multiplicity.
 
       oscillator strength (length gauge)   :      0.00151821
 
ADC(2)   Transition moments for pair    2 a        5 a   
  operator     left TM        right TM  Transition Strength
  xdiplen      0.040522       0.040522       0.001642
  ydiplen     -0.024657      -0.024657       0.000608
  zdiplen      0.046082       0.046082       0.002124
 Transition and Operator of different multiplicity.
 Transition and Operator of different multiplicity.
 Transition and Operator of different multiplicity.
 
       oscillator strength (length gauge)   :      0.00017911
 
ADC(2)   Transition moments for pair    2 a        1 a   
  operator     left TM        right TM  Transition Strength
 Transition and Operator of different multiplicity.
 Transition and Operator of different multiplicity.
 Transition and Operator of different multiplicity.
  xsoc         0.000001      -0.000001      -0.000000
  ysoc         0.000000      -0.000000      -0.000000
  zsoc         0.000001      -0.000001      -0.000000
 
       oscillator strength (length gauge)   :      0.00000000
 
ADC(2)   Transition moments for pair    2 a        2 a   
  operator     left TM        right TM  Transition Strength
 Transition and Operator of different multiplicity.
 Transition and Operator of different multiplicity.
 Transition and Operator of different multiplicity.
  xsoc        -0.000000       0.000000      -0.000000
  ysoc        -0.000000       0.000000      -0.000000
  zsoc         0.000000      -0.000000      -0.000000
 
       oscillator strength (length gauge)   :      0.00000000
 
ADC(2)   Transition moments for pair    2 a        3 a   
  operator     left TM        right TM  Transition Strength
 Transition and Operator of different multiplicity.
 Transition and Operator of different multiplicity.
 Transition and Operator of different multiplicity.
  xsoc        -0.000001       0.000001      -0.000000
  ysoc        -0.000000       0.000000      -0.000000
  zsoc        -0.000001       0.000001      -0.000000
 
       oscillator strength (length gauge)   :      0.00000000
 
ADC(2)   Transition moments for pair    2 a        4 a   
  operator     left TM        right TM  Transition Strength
 Transition and Operator of different multiplicity.
 Transition and Operator of different multiplicity.
 Transition and Operator of different multiplicity.
  xsoc        -0.000001       0.000001      -0.000000
  ysoc        -0.000000       0.000000      -0.000000
  zsoc         0.000000      -0.000000      -0.000000
 
       oscillator strength (length gauge)   :      0.00000000
 
ADC(2)   Transition moments for pair    2 a        5 a   
  operator     left TM        right TM  Transition Strength
 Transition and Operator of different multiplicity.
 Transition and Operator of different multiplicity.
 Transition and Operator of different multiplicity.
  xsoc        -0.000003       0.000003      -0.000000
  ysoc        -0.000002       0.000002      -0.000000
  zsoc        -0.000003       0.000003      -0.000000
 
       oscillator strength (length gauge)   :      0.00000000
 
ADC(2)   Transition moments for pair    2 a        6 a   
  operator     left TM        right TM  Transition Strength
 Transition and Operator of different multiplicity.
 Transition and Operator of different multiplicity.
 Transition and Operator of different multiplicity.
  xsoc        -0.000091       0.000091      -0.000000
  ysoc        -0.000091       0.000091      -0.000000
  zsoc        -0.000104       0.000104      -0.000000
 
       oscillator strength (length gauge)   :      0.00000000
 
ADC(2)   Transition moments for pair    3 a        4 a   
  operator     left TM        right TM  Transition Strength
  xdiplen     -0.496999      -0.496999       0.247008
  ydiplen      0.283831       0.283831       0.080560
  zdiplen      0.023549       0.023549       0.000555
 Transition and Operator of different multiplicity.
 Transition and Operator of different multiplicity.
 Transition and Operator of different multiplicity.
 
       oscillator strength (length gauge)   :      0.00782292
 
ADC(2)   Transition moments for pair    3 a        5 a   
  operator     left TM        right TM  Transition Strength
  xdiplen      0.136820       0.136820       0.018720
  ydiplen     -0.051725      -0.051725       0.002675
  zdiplen      0.469002       0.469002       0.219962
 Transition and Operator of different multiplicity.
 Transition and Operator of different multiplicity.
 Transition and Operator of different multiplicity.
 
       oscillator strength (length gauge)   :      0.00597374
 
ADC(2)   Transition moments for pair    3 a        1 a   
  operator     left TM        right TM  Transition Strength
 Transition and Operator of different multiplicity.
 Transition and Operator of different multiplicity.
 Transition and Operator of different multiplicity.
  xsoc         0.000001      -0.000001      -0.000000
  ysoc        -0.000000       0.000000      -0.000000
  zsoc        -0.000000       0.000000      -0.000000
 
       oscillator strength (length gauge)   :      0.00000000
 
ADC(2)   Transition moments for pair    3 a        2 a   
  operator     left TM        right TM  Transition Strength
 Transition and Operator of different multiplicity.
 Transition and Operator of different multiplicity.
 Transition and Operator of different multiplicity.
  xsoc         0.000000      -0.000000      -0.000000
  ysoc         0.000000      -0.000000      -0.000000
  zsoc        -0.000001       0.000001      -0.000000
 
       oscillator strength (length gauge)   :      0.00000000
 
ADC(2)   Transition moments for pair    3 a        3 a   
[...]
 Transition and Operator of different multiplicity.
  xsoc         0.000003      -0.000003      -0.000000
  ysoc         0.000002      -0.000002      -0.000000
  zsoc         0.000002      -0.000002      -0.000000
 
       oscillator strength (length gauge)   :      0.00000000
 
ADC(2)   Transition moments for pair    1 a        2 a   
  operator     left TM        right TM  Transition Strength
  xdiplen      0.176119       0.176119       0.031018
  ydiplen     -0.092136      -0.092136       0.008489
  zdiplen      0.180605       0.180605       0.032618
 Transition and Operator of different multiplicity.
 Transition and Operator of different multiplicity.
 Transition and Operator of different multiplicity.
 
       oscillator strength (length gauge)   :      0.00066468
 
ADC(2)   Transition moments for pair    1 a        3 a   
  operator     left TM        right TM  Transition Strength
  xdiplen     -0.081776      -0.081776       0.006687
  ydiplen      0.039910       0.039910       0.001593
  zdiplen      0.218013       0.218013       0.047529
 Transition and Operator of different multiplicity.
 Transition and Operator of different multiplicity.
 Transition and Operator of different multiplicity.
 
       oscillator strength (length gauge)   :      0.00107396
 
ADC(2)   Transition moments for pair    1 a        4 a   
  operator     left TM        right TM  Transition Strength
  xdiplen      0.007718       0.007718       0.000060
  ydiplen      0.004033       0.004033       0.000016
  zdiplen     -0.016336      -0.016336       0.000267
 Transition and Operator of different multiplicity.
 Transition and Operator of different multiplicity.
 Transition and Operator of different multiplicity.
 
       oscillator strength (length gauge)   :      0.00000841
 
ADC(2)   Transition moments for pair    1 a        5 a   
  operator     left TM        right TM  Transition Strength
  xdiplen     -0.148677      -0.148677       0.022105
  ydiplen      0.072917       0.072917       0.005317
  zdiplen      0.001206       0.001206       0.000001
 Transition and Operator of different multiplicity.
 Transition and Operator of different multiplicity.
 Transition and Operator of different multiplicity.
 
       oscillator strength (length gauge)   :      0.00133382
 
ADC(2)   Transition moments for pair    1 a        6 a   
  operator     left TM        right TM  Transition Strength
  xdiplen      0.008158       0.008158       0.000067
  ydiplen      0.003547       0.003547       0.000013
  zdiplen     -0.005925      -0.005925       0.000035
 Transition and Operator of different multiplicity.
 Transition and Operator of different multiplicity.
 Transition and Operator of different multiplicity.
 
       oscillator strength (length gauge)   :      0.00000581
 
ADC(2)   Transition moments for pair    2 a        3 a   
  operator     left TM        right TM  Transition Strength
  xdiplen     -0.047720      -0.047720       0.002277
  ydiplen      0.025830       0.025830       0.000667
  zdiplen     -0.019997      -0.019997       0.000400
 Transition and Operator of different multiplicity.
 Transition and Operator of different multiplicity.
 Transition and Operator of different multiplicity.
 
       oscillator strength (length gauge)   :      0.00003353
 
ADC(2)   Transition moments for pair    2 a        4 a   
  operator     left TM        right TM  Transition Strength
  xdiplen      0.016700       0.016700       0.000279
  ydiplen      0.000397       0.000397       0.000000
  zdiplen     -0.030015      -0.030015       0.000901
 Transition and Operator of different multiplicity.
 Transition and Operator of different multiplicity.
 Transition and Operator of different multiplicity.
 
       oscillator strength (length gauge)   :      0.00001810
 
ADC(2)   Transition moments for pair    2 a        5 a   
  operator     left TM        right TM  Transition Strength
  xdiplen     -0.206175      -0.206175       0.042508
  ydiplen      0.079200       0.079200       0.006273
  zdiplen      0.397064       0.397064       0.157659
 Transition and Operator of different multiplicity.
 Transition and Operator of different multiplicity.
 Transition and Operator of different multiplicity.
 
       oscillator strength (length gauge)   :      0.00813843
 
ADC(2)   Transition moments for pair    2 a        6 a   
  operator     left TM        right TM  Transition Strength
  xdiplen      0.013114       0.013114       0.000172
  ydiplen     -0.004352      -0.004352       0.000019
  zdiplen     -0.018407      -0.018407       0.000339
 Transition and Operator of different multiplicity.
 Transition and Operator of different multiplicity.
 Transition and Operator of different multiplicity.
 
       oscillator strength (length gauge)   :      0.00002205
 
ADC(2)   Transition moments for pair    3 a        4 a   
  operator     left TM        right TM  Transition Strength
  xdiplen     -0.000830      -0.000830       0.000001
  ydiplen     -0.005447      -0.005447       0.000030
  zdiplen     -0.029333      -0.029333       0.000860
 Transition and Operator of different multiplicity.
 Transition and Operator of different multiplicity.
 Transition and Operator of different multiplicity.
 
       oscillator strength (length gauge)   :      0.00000473
 
ADC(2)   Transition moments for pair    3 a        5 a   
  operator     left TM        right TM  Transition Strength
  xdiplen     -0.131374      -0.131374       0.017259
  ydiplen      0.057744       0.057744       0.003334
  zdiplen      0.033736       0.033736       0.001138
 Transition and Operator of different multiplicity.
 Transition and Operator of different multiplicity.
 Transition and Operator of different multiplicity.
 
       oscillator strength (length gauge)   :      0.00063880
 
ADC(2)   Transition moments for pair    3 a        6 a   
  operator     left TM        right TM  Transition Strength
  xdiplen      0.005598       0.005598       0.000031
  ydiplen     -0.010289      -0.010289       0.000106
  zdiplen     -0.001620      -0.001620       0.000003
 Transition and Operator of different multiplicity.
 Transition and Operator of different multiplicity.
 Transition and Operator of different multiplicity.
 
       oscillator strength (length gauge)   :      0.00000442
 
ADC(2)   Transition moments for pair    4 a        5 a   
  operator     left TM        right TM  Transition Strength
  xdiplen      0.014074       0.014074       0.000198
  ydiplen     -0.002640      -0.002640       0.000007
  zdiplen     -0.002365      -0.002365       0.000006
 Transition and Operator of different multiplicity.
 Transition and Operator of different multiplicity.
 Transition and Operator of different multiplicity.
 
       oscillator strength (length gauge)   :      0.00000507
 
ADC(2)   Transition moments for pair    4 a        6 a   
  operator     left TM        right TM  Transition Strength
  xdiplen      0.001937       0.001937       0.000004
  ydiplen     -0.001540      -0.001540       0.000002
  zdiplen      0.005796       0.005796       0.000034
 Transition and Operator of different multiplicity.
 Transition and Operator of different multiplicity.
 Transition and Operator of different multiplicity.
 
       oscillator strength (length gauge)   :      0.00000104
 
ADC(2)   Transition moments for pair    5 a        6 a   
  operator     left TM        right TM  Transition Strength
  xdiplen     -0.003084      -0.003084       0.000010
  ydiplen     -0.002657      -0.002657       0.000007
  zdiplen     -0.027375      -0.027375       0.000749
 Transition and Operator of different multiplicity.
 Transition and Operator of different multiplicity.
 Transition and Operator of different multiplicity.
 
       oscillator strength (length gauge)   :      0.00000169
 
 
  =========================================================================================
  |                                    Model: ADC(2)                                      |
  =========================================================================================
  |                                                                                       |
  |        States           Operator    Excitation                 Transition             |
  |                                       energy                     moment               |
  |      I         F                        eV                        cm-1                |
  |                                                                                       |
  |=======================================================================================|
  |                       |          |             |            |            |            |
  |                       |          |             |      X     |      Y     |      Z     |
  |                       |          |             |            |            |            |
  |    1^1a       2^1a    |     soc  |    0.57301  |      0.00  |      0.00  |      0.00  |
  |    1^1a       3^1a    |     soc  |    1.23431  |      0.00  |      0.00  |      0.00  |
  |    1^1a       4^1a    |     soc  |    2.20744  |      0.00  |      0.00  |      0.00  |
  |    1^1a       5^1a    |     soc  |    2.24455  |      0.00  |      0.00  |      0.00  |
  |    1^1a       1^3a    |     soc  |   -0.74152  |      0.05  |      0.03  |      0.33  |
  |    1^1a       2^3a    |     soc  |   -0.36537  |     -0.01  |      0.01  |     -0.06  |
  |    1^1a       3^3a    |     soc  |    0.04393  |     -0.06  |     -0.03  |     -0.04  |
  |    1^1a       4^3a    |     soc  |    0.26071  |      0.04  |      0.06  |     -0.04  |
  |    1^1a       5^3a    |     soc  |    1.24375  |     -0.05  |      0.02  |     -0.01  |
  |    1^1a       6^3a    |     soc  |    1.33359  |      0.13  |     -0.28  |     -0.15  |
  |    2^1a       3^1a    |     soc  |    0.66129  |      0.00  |      0.00  |      0.00  |
  |    2^1a       4^1a    |     soc  |    1.63443  |      0.00  |      0.00  |      0.00  |
  |    2^1a       5^1a    |     soc  |    1.67154  |      0.00  |      0.00  |      0.00  |
  |    2^1a       1^3a    |     soc  |   -1.31453  |      0.14  |      0.00  |      0.22  |
  |    2^1a       2^3a    |     soc  |   -0.93838  |     -0.08  |     -0.08  |      0.09  |
  |    2^1a       3^3a    |     soc  |   -0.52908  |     -0.28  |     -0.10  |     -0.20  |
  |    2^1a       4^3a    |     soc  |   -0.31230  |     -0.15  |     -0.06  |      0.03  |
  |    2^1a       5^3a    |     soc  |    0.67074  |     -0.64  |     -0.49  |     -0.65  |
  |    2^1a       6^3a    |     soc  |    0.76058  |    -20.03  |    -20.02  |    -22.88  |
  |    3^1a       4^1a    |     soc  |    0.97314  |      0.00  |      0.00  |      0.00  |
  |    3^1a       5^1a    |     soc  |    1.01025  |      0.00  |      0.00  |      0.00  |
  |    3^1a       1^3a    |     soc  |   -1.97583  |      0.14  |     -0.07  |     -0.01  |
  |    3^1a       2^3a    |     soc  |   -1.59967  |      0.04  |      0.03  |     -0.29  |
  |    3^1a       3^3a    |     soc  |   -1.19037  |      0.06  |     -0.04  |     -0.02  |
  |    3^1a       4^3a    |     soc  |   -0.97360  |      0.17  |      0.06  |      0.04  |
  |    3^1a       5^3a    |     soc  |    0.00945  |     -0.13  |     -0.01  |     -0.35  |
  |    3^1a       6^3a    |     soc  |    0.09929  |      0.82  |      0.28  |      0.65  |
  |    4^1a       5^1a    |     soc  |    0.03711  |      0.00  |      0.00  |      0.00  |
  |    4^1a       1^3a    |     soc  |   -2.94896  |      0.26  |     -0.22  |     -0.83  |
  |    4^1a       2^3a    |     soc  |   -2.57281  |      0.13  |      0.12  |      0.22  |
  |    4^1a       3^3a    |     soc  |   -2.16351  |      0.65  |     -0.06  |     -0.29  |
  |    4^1a       4^3a    |     soc  |   -1.94673  |     -0.04  |     -0.45  |      0.41  |
  |    4^1a       5^3a    |     soc  |   -0.96369  |     -0.16  |     -0.03  |     -0.05  |
  |    4^1a       6^3a    |     soc  |   -0.87385  |     -1.62  |      0.18  |     -1.16  |
  |    5^1a       1^3a    |     soc  |   -2.98607  |     -0.10  |     -0.01  |      0.52  |
  |    5^1a       2^3a    |     soc  |   -2.60992  |      0.36  |      0.04  |     -0.26  |
  |    5^1a       3^3a    |     soc  |   -2.20062  |      0.00  |     -0.03  |      0.49  |
  |    5^1a       4^3a    |     soc  |   -1.98384  |      0.71  |      0.41  |      0.79  |
  |    5^1a       5^3a    |     soc  |   -1.00080  |     -0.13  |     -0.05  |      0.06  |
  |    5^1a       6^3a    |     soc  |   -0.91096  |      0.70  |      0.34  |      0.51  |
  |    1^3a       2^3a    |     soc  |    0.37616  |      0.00  |      0.00  |      0.00  |
  |    1^3a       3^3a    |     soc  |    0.78545  |      0.00  |      0.00  |      0.00  |
  |    1^3a       4^3a    |     soc  |    1.00223  |      0.00  |      0.00  |      0.00  |
  |    1^3a       5^3a    |     soc  |    1.98527  |      0.00  |      0.00  |      0.00  |
  |    1^3a       6^3a    |     soc  |    2.07511  |      0.00  |      0.00  |      0.00  |
  |    2^3a       3^3a    |     soc  |    0.40930  |      0.00  |      0.00  |      0.00  |
  |    2^3a       4^3a    |     soc  |    0.62608  |      0.00  |      0.00  |      0.00  |
  |    2^3a       5^3a    |     soc  |    1.60912  |      0.00  |      0.00  |      0.00  |
  |    2^3a       6^3a    |     soc  |    1.69896  |      0.00  |      0.00  |      0.00  |
  |    3^3a       4^3a    |     soc  |    0.21678  |      0.00  |      0.00  |      0.00  |
  |    3^3a       5^3a    |     soc  |    1.19982  |      0.00  |      0.00  |      0.00  |
  |    3^3a       6^3a    |     soc  |    1.28966  |      0.00  |      0.00  |      0.00  |
  |    4^3a       5^3a    |     soc  |    0.98304  |      0.00  |      0.00  |      0.00  |
  |    4^3a       6^3a    |     soc  |    1.07288  |      0.00  |      0.00  |      0.00  |
  |    5^3a       6^3a    |     soc  |    0.08984  |      0.00  |      0.00  |      0.00  |
  |                       |          |             |            |            |            |
  =========================================================================================
 
 
  ==============================================================================
  |                               Model: ADC(2)                                |
  ==============================================================================
  |                                                                            |
  |     States        Operator    Excitation      Transition       Oscillator  |
  |                                 energy        strengths        strengths   |
  |    I       F                      eV             a.u.                      |
  |                                                                            |
  |============================================================================|
  |                 |          |             |                |                |
  |  1^1a    2^1a   |  diplen  |    0.57301  |    0.00086769  |    0.00001218  |
  |  1^1a    3^1a   |  diplen  |    1.23431  |    0.01416552  |    0.00042836  |
  |  1^1a    4^1a   |  diplen  |    2.20744  |    0.15732696  |    0.00850846  |
  |  1^1a    5^1a   |  diplen  |    2.24455  |    0.29902685  |    0.01644365  |
  |  1^1a    1^3a   |  diplen  |   -0.74152  |    0.00000000  |    0.00000000  |
  |  1^1a    2^3a   |  diplen  |   -0.36537  |    0.00000000  |    0.00000000  |
  |  1^1a    3^3a   |  diplen  |    0.04393  |    0.00000000  |    0.00000000  |
  |  1^1a    4^3a   |  diplen  |    0.26071  |    0.00000000  |    0.00000000  |
  |  1^1a    5^3a   |  diplen  |    1.24375  |    0.00000000  |    0.00000000  |
  |  1^1a    6^3a   |  diplen  |    1.33359  |    0.00000000  |    0.00000000  |
  |  2^1a    3^1a   |  diplen  |    0.66129  |    0.00296628  |    0.00004806  |
  |  2^1a    4^1a   |  diplen  |    1.63443  |    0.03791470  |    0.00151821  |
  |  2^1a    5^1a   |  diplen  |    1.67154  |    0.00437363  |    0.00017911  |
  |  2^1a    1^3a   |  diplen  |   -1.31453  |    0.00000000  |    0.00000000  |
  |  2^1a    2^3a   |  diplen  |   -0.93838  |    0.00000000  |    0.00000000  |
  |  2^1a    3^3a   |  diplen  |   -0.52908  |    0.00000000  |    0.00000000  |
  |  2^1a    4^3a   |  diplen  |   -0.31230  |    0.00000000  |    0.00000000  |
  |  2^1a    5^3a   |  diplen  |    0.67074  |    0.00000000  |    0.00000000  |
  |  2^1a    6^3a   |  diplen  |    0.76058  |    0.00000000  |    0.00000000  |
  |  3^1a    4^1a   |  diplen  |    0.97314  |    0.32812291  |    0.00782292  |
  |  3^1a    5^1a   |  diplen  |    1.01025  |    0.24135766  |    0.00597374  |
  |  3^1a    1^3a   |  diplen  |   -1.97583  |    0.00000000  |    0.00000000  |
  |  3^1a    2^3a   |  diplen  |   -1.59967  |    0.00000000  |    0.00000000  |
  |  3^1a    3^3a   |  diplen  |   -1.19037  |    0.00000000  |    0.00000000  |
  |  3^1a    4^3a   |  diplen  |   -0.97360  |    0.00000000  |    0.00000000  |
  |  3^1a    5^3a   |  diplen  |    0.00945  |    0.00000000  |    0.00000000  |
  |  3^1a    6^3a   |  diplen  |    0.09929  |    0.00000000  |    0.00000000  |
  |  4^1a    5^1a   |  diplen  |    0.03711  |    0.30331548  |    0.00027576  |
  |  4^1a    1^3a   |  diplen  |   -2.94896  |    0.00000000  |    0.00000000  |
  |  4^1a    2^3a   |  diplen  |   -2.57281  |    0.00000000  |    0.00000000  |
  |  4^1a    3^3a   |  diplen  |   -2.16351  |    0.00000000  |    0.00000000  |
  |  4^1a    4^3a   |  diplen  |   -1.94673  |    0.00000000  |    0.00000000  |
  |  4^1a    5^3a   |  diplen  |   -0.96369  |    0.00000000  |    0.00000000  |
  |  4^1a    6^3a   |  diplen  |   -0.87385  |    0.00000000  |    0.00000000  |
  |  5^1a    1^3a   |  diplen  |   -2.98607  |    0.00000000  |    0.00000000  |
  |  5^1a    2^3a   |  diplen  |   -2.60992  |    0.00000000  |    0.00000000  |
  |  5^1a    3^3a   |  diplen  |   -2.20062  |    0.00000000  |    0.00000000  |
  |  5^1a    4^3a   |  diplen  |   -1.98384  |    0.00000000  |    0.00000000  |
  |  5^1a    5^3a   |  diplen  |   -1.00080  |    0.00000000  |    0.00000000  |
  |  5^1a    6^3a   |  diplen  |   -0.91096  |    0.00000000  |    0.00000000  |
  |  1^3a    2^3a   |  diplen  |    0.37616  |    0.07212533  |    0.00066468  |
  |  1^3a    3^3a   |  diplen  |    0.78545  |    0.05580962  |    0.00107396  |
  |  1^3a    4^3a   |  diplen  |    1.00223  |    0.00034269  |    0.00000841  |
  |  1^3a    5^3a   |  diplen  |    1.98527  |    0.02742328  |    0.00133382  |
  |  1^3a    6^3a   |  diplen  |    2.07511  |    0.00011424  |    0.00000581  |
  |  2^3a    3^3a   |  diplen  |    0.40930  |    0.00334425  |    0.00003353  |
  |  2^3a    4^3a   |  diplen  |    0.62608  |    0.00117993  |    0.00001810  |
  |  2^3a    5^3a   |  diplen  |    1.60912  |    0.20644026  |    0.00813843  |
  |  2^3a    6^3a   |  diplen  |    1.69896  |    0.00052973  |    0.00002205  |
  |  3^3a    4^3a   |  diplen  |    0.21678  |    0.00089078  |    0.00000473  |
  |  3^3a    5^3a   |  diplen  |    1.19982  |    0.02173170  |    0.00063880  |
  |  3^3a    6^3a   |  diplen  |    1.28966  |    0.00013982  |    0.00000442  |
  |  4^3a    5^3a   |  diplen  |    0.98304  |    0.00021063  |    0.00000507  |
  |  4^3a    6^3a   |  diplen  |    1.07288  |    0.00003971  |    0.00000104  |
  |  5^3a    6^3a   |  diplen  |    0.08984  |    0.00076599  |    0.00000169  |
  |                 |          |             |                |                |
  ==============================================================================
 
 Exporting excited state transition densities


    ------------------------------------------------------------------------
         total  cpu-time :  1 hours 20 minutes and 14 seconds
         total wall-time : 20 minutes and 49 seconds
    ------------------------------------------------------------------------


   ****  ricc2 : all done  ****


    2017-03-16 10:52:26.335 

 ricc2 ended normally
