[Molden Format]
[Title]
                                                                                
[Atoms] AU
 c     1    6 0.33070207187257E+01 0.00000000000000E+00 0.11191877907914E+01
 c     2    6 -.33070207187257E+01 0.00000000000000E+00 0.11191877907914E+01
 o     3    8 0.33070207187257E+01 0.00000000000000E+00 -.11250941112178E+01
 o     4    8 -.33070207187257E+01 0.00000000000000E+00 -.11250941112178E+01
 h     5    1 0.33070207187257E+01 0.17478093261700E+01 0.22123540397044E+01
 h     6    1 -.33070207187257E+01 0.17478093261700E+01 0.22123540397044E+01
 h     7    1 0.33070207187257E+01 -.17478093261700E+01 0.22123540397044E+01
 h     8    1 -.33070207187257E+01 -.17478093261700E+01 0.22123540397044E+01
[GTO]
    1 0
 s    5 1.00
 0.12384016938000E+04 0.55173650481097E-02
 0.18629004992000E+03 0.41088828555946E-01
 0.42251176346000E+02 0.18225382126490E+00
 0.11676557932000E+02 0.46828459437429E+00
 0.35930506482000E+01 0.44575817336002E+00
 s    1 1.00
 0.40245147363000E+00 0.10000000000000E+01
 s    1 1.00
 0.13090182668000E+00 0.10000000000000E+01
 p    3 1.00
 0.94680970621000E+01 0.56888332011037E-01
 0.20103545142000E+01 0.31294059336471E+00
 0.54771004707000E+00 0.76065016509135E+00
 p    1 1.00
 0.15268613795000E+00 0.10000000000000E+01
 d    1 1.00
 0.80000000000000E+00 0.10000000000000E+01
 
    2 0
 s    5 1.00
 0.12384016938000E+04 0.55173650481097E-02
 0.18629004992000E+03 0.41088828555946E-01
 0.42251176346000E+02 0.18225382126490E+00
 0.11676557932000E+02 0.46828459437429E+00
 0.35930506482000E+01 0.44575817336002E+00
 s    1 1.00
 0.40245147363000E+00 0.10000000000000E+01
 s    1 1.00
 0.13090182668000E+00 0.10000000000000E+01
 p    3 1.00
 0.94680970621000E+01 0.56888332011037E-01
 0.20103545142000E+01 0.31294059336471E+00
 0.54771004707000E+00 0.76065016509135E+00
 p    1 1.00
 0.15268613795000E+00 0.10000000000000E+01
 d    1 1.00
 0.80000000000000E+00 0.10000000000000E+01
 
    3 0
 s    5 1.00
 0.22661767785000E+04 -.53893503921743E-02
 0.34087010191000E+03 -.40234721388960E-01
 0.77363135167000E+02 -.18008184205526E+00
 0.21479644940000E+02 -.46828857657651E+00
 0.66589433124000E+01 -.44692617160187E+00
 s    1 1.00
 0.80975975668000E+00 0.10000000000000E+01
 s    1 1.00
 0.25530772234000E+00 0.10000000000000E+01
 p    3 1.00
 0.17721504317000E+02 0.62630248763161E-01
 0.38635505440000E+01 0.33331138482352E+00
 0.10480920883000E+01 0.74148638308122E+00
 p    1 1.00
 0.27641544411000E+00 0.10000000000000E+01
 d    1 1.00
 0.12000000000000E+01 0.10000000000000E+01
 
    4 0
 s    5 1.00
 0.22661767785000E+04 -.53893503921743E-02
 0.34087010191000E+03 -.40234721388960E-01
 0.77363135167000E+02 -.18008184205526E+00
 0.21479644940000E+02 -.46828857657651E+00
 0.66589433124000E+01 -.44692617160187E+00
 s    1 1.00
 0.80975975668000E+00 0.10000000000000E+01
 s    1 1.00
 0.25530772234000E+00 0.10000000000000E+01
 p    3 1.00
 0.17721504317000E+02 0.62630248763161E-01
 0.38635505440000E+01 0.33331138482352E+00
 0.10480920883000E+01 0.74148638308122E+00
 p    1 1.00
 0.27641544411000E+00 0.10000000000000E+01
 d    1 1.00
 0.12000000000000E+01 0.10000000000000E+01
 
    5 0
 s    3 1.00
 0.13010701000000E+02 0.33485484812989E-01
 0.19622572000000E+01 0.23472187088125E+00
 0.44453796000000E+00 0.81377028525955E+00
 s    1 1.00
 0.12194962000000E+00 0.10000000000000E+01
 
    6 0
 s    3 1.00
 0.13010701000000E+02 0.33485484812989E-01
 0.19622572000000E+01 0.23472187088125E+00
 0.44453796000000E+00 0.81377028525955E+00
 s    1 1.00
 0.12194962000000E+00 0.10000000000000E+01
 
    7 0
 s    3 1.00
 0.13010701000000E+02 0.33485484812989E-01
 0.19622572000000E+01 0.23472187088125E+00
 0.44453796000000E+00 0.81377028525955E+00
 s    1 1.00
 0.12194962000000E+00 0.10000000000000E+01
 
    8 0
 s    3 1.00
 0.13010701000000E+02 0.33485484812989E-01
 0.19622572000000E+01 0.23472187088125E+00
 0.44453796000000E+00 0.81377028525955E+00
 s    1 1.00
 0.12194962000000E+00 0.10000000000000E+01
 
[MO]
 Sym=    1a   
 Ene= -.20579978493509E+02
 Spin= Alpha
 Occup= 2.000000
    1 -.37725824069857E-05
    2 -.57811209649823E-03
    3 -.51823613150241E-02
    4 -.11613177242499E-03
    5 0.36196757794454E-16
    6 -.50723756403785E-03
    7 0.36292328183151E-03
    8 -.54793211434644E-15
    9 0.24190901423299E-02
   10 0.48747988581660E-07
   11 -.70769277739997E-04
   12 0.63110225934778E-03
   13 0.75035065612998E-16
   14 -.29182716468025E-04
   15 -.15794444960262E-15
   16 0.37725824017256E-05
   17 0.57811208958174E-03
   18 0.51823612798644E-02
   19 -.11613177269988E-03
   20 -.24362507481914E-16
   21 0.50723755889958E-03
   22 0.36292328291973E-03
   23 -.22694995179381E-16
   24 -.24190901222354E-02
   25 -.48748361726318E-07
   26 0.70769276887900E-04
   27 -.63110225367193E-03
   28 -.30599761186180E-17
   29 -.29182716558570E-04
   30 -.15448304882781E-15
   31 0.69925908497940E+00
   32 -.27125668805351E-01
   33 0.10533644778636E-01
   34 -.38444775809474E-06
   35 -.39038561360486E-16
   36 -.17572807914896E-02
   37 -.75333130567429E-04
   38 0.89243898745824E-16
   39 0.22505622565523E-02
   40 0.14575384599774E-02
   41 0.13061300506368E-02
   42 0.10645698367180E-02
   43 -.46796255472388E-16
   44 -.14662278143530E-04
   45 -.10814939104609E-15
   46 -.69925907861452E+00
   47 0.27125668559307E-01
   48 -.10533644689877E-01
   49 -.38444774182661E-06
   50 -.19642496246717E-16
   51 0.17572807756219E-02
   52 -.75333130681308E-04
   53 -.75793002077754E-16
   54 -.22505622381203E-02
   55 -.14575384463765E-02
   56 -.13061300385233E-02
   57 -.10645698268158E-02
   58 -.19029412125519E-15
   59 -.14662278189896E-04
   60 -.20265426863886E-15
   61 0.28367305785318E-03
   62 0.42112535660181E-03
   63 -.28367305648715E-03
   64 -.42112535438375E-03
   65 0.28367305785295E-03
   66 0.42112535660142E-03
   67 -.28367305648752E-03
   68 -.42112535438361E-03
 Sym=    2a   
 Ene= -.20579971939052E+02
 Spin= Alpha
 Occup= 2.000000
    1 -.56584140184945E-06
    2 -.75978983386692E-03
    3 -.38628674231958E-02
    4 0.30202323429283E-04
    5 0.66277307953212E-16
    6 -.56448979710009E-03
    7 -.11954619295834E-03
    8 -.17322018229298E-15
    9 0.22077368114756E-02
   10 -.41006908961582E-04
   11 -.93629740558389E-04
   12 0.62355079479315E-03
   13 0.17582089043639E-16
   14 0.99591902933884E-05
   15 0.69765977029057E-16
   16 -.56584143654007E-06
   17 -.75978983912741E-03
   18 -.38628674703671E-02
   19 -.30202322372461E-04
   20 -.40972922761243E-16
   21 -.56448980171719E-03
   22 0.11954618965486E-03
   23 -.27722335187826E-15
   24 0.22077368334949E-02
   25 -.41006908961404E-04
   26 -.93629741203190E-04
   27 0.62355080053798E-03
   28 0.98275769666114E-17
   29 -.99591900275896E-05
   30 0.15002569876160E-15
   31 0.69925048957617E+00
   32 -.27030898985650E-01
   33 0.97513827442921E-02
   34 -.17821884694317E-05
   35 0.85575549715367E-16
   36 -.17432163408920E-02
   37 0.12508115529664E-04
   38 -.45007056988398E-16
   39 0.20250207149606E-02
   40 0.14942557881596E-02
   41 0.13308354520727E-02
   42 0.10878867518565E-02
   43 -.17494721378895E-15
   44 0.51002011186517E-05
   45 -.69706101149637E-16
   46 0.69925049594111E+00
   47 -.27030899232561E-01
   48 0.97513828401725E-02
   49 0.17821884729991E-05
   50 -.82669683514736E-16
   51 -.17432163568876E-02
   52 -.12508114843741E-04
   53 0.17115940099479E-15
   54 0.20250207354462E-02
   55 0.14942558014269E-02
   56 0.13308354639621E-02
   57 0.10878867615469E-02
   58 -.20450894760628E-15
   59 -.51002009848739E-05
   60 0.13423411661371E-15
   61 0.15001740968344E-03
   62 0.24368842861249E-03
   63 0.15001741226553E-03
   64 0.24368843244522E-03
   65 0.15001740968352E-03
   66 0.24368842861207E-03
   67 0.15001741226537E-03
   68 0.24368843244507E-03
 Sym=    3a   
 Ene= -.11345745366873E+02
 Spin= Alpha
 Occup= 2.000000
    1 0.70173715722238E+00
    2 0.20752186767385E-01
    3 -.14623699993430E-01
    4 -.30080455815801E-03
    5 -.15990264324884E-16
    6 -.90682378740155E-03
    7 0.86079958318363E-03
    8 0.43192852514054E-15
    9 -.31309951109276E-02
   10 0.59800697944338E-03
   11 0.10725601278774E-02
   12 0.17965513366374E-02
   13 0.17428622434197E-16
   14 -.56269409566758E-04
   15 -.27452275862084E-16
   16 -.70173715700887E+00
   17 -.20752186761238E-01
   18 0.14623699990253E-01
   19 -.30080455818478E-03
   20 0.12631594049713E-15
   21 0.90682378706096E-03
   22 0.86079958326773E-03
   23 -.12129213153653E-15
   24 0.31309951098310E-02
   25 -.59800697930032E-03
   26 -.10725601275668E-02
   27 -.17965513360907E-02
   28 0.11016357300576E-15
   29 -.56269409570063E-04
   30 -.28066732804789E-16
   31 0.29072610274326E-03
   32 -.35126419555339E-03
   33 -.17923985500242E-02
   34 -.24069775504718E-05
   35 0.10936702340973E-15
   36 -.21230624935579E-03
   37 -.18181322463244E-03
   38 -.45958723125159E-16
   39 -.25379269198363E-02
   40 0.33019212390905E-04
   41 -.65803285890578E-04
   42 -.20958231889962E-04
   43 -.17402268862312E-16
   44 -.30359163223800E-04
   45 0.75364842175175E-16
   46 -.29072610266197E-03
   47 0.35126419554232E-03
   48 0.17923985487557E-02
   49 -.24069775537259E-05
   50 -.54589164980247E-16
   51 0.21230624930802E-03
   52 -.18181322464314E-03
   53 0.14465833807295E-16
   54 0.25379269188386E-02
   55 -.33019212350880E-04
   56 0.65803285897461E-04
   57 0.20958231903803E-04
   58 0.82956657639313E-16
   59 -.30359163226297E-04
   60 -.27426079833533E-15
   61 -.10216722385367E-02
   62 0.48139694130324E-02
   63 0.10216722381354E-02
   64 -.48139694118364E-02
   65 -.10216722385364E-02
   66 0.48139694130325E-02
   67 0.10216722381352E-02
   68 -.48139694118360E-02
 Sym=    4a   
 Ene= -.11345709777531E+02
 Spin= Alpha
 Occup= 2.000000
    1 0.70177066909599E+00
    2 0.20188440828120E-01
    3 -.10446872329687E-01
    4 0.88065383158188E-04
    5 0.91218950360390E-16
    6 -.11221523416963E-02
    7 -.27753379377110E-03
    8 0.21214568287300E-16
    9 -.36058962457061E-02
   10 0.47433733655419E-03
   11 0.10253487373492E-02
   12 0.18033685438856E-02
   13 0.52786746774119E-16
   14 0.10710737197462E-04
   15 0.84280125027351E-16
   16 0.70177066930949E+00
   17 0.20188440834431E-01
   18 -.10446872334143E-01
   19 -.88065383066203E-04
   20 -.22712808935523E-16
   21 -.11221523419717E-02
   22 0.27753379350775E-03
   23 -.44145065859339E-15
   24 -.36058962466587E-02
   25 0.47433733673725E-03
   26 0.10253487376768E-02
   27 0.18033685444333E-02
   28 -.12674778904248E-15
   29 -.10710737180624E-04
   30 0.11622516534762E-15
   31 0.26751932900261E-03
   32 -.30393438839584E-04
   33 -.41704077776098E-02
   34 0.10065588427328E-04
   35 -.33040262395074E-15
   36 -.15844924254736E-03
   37 0.35376637431184E-04
   38 0.28008254278057E-15
   39 -.32808938718293E-02
   40 0.13134870045911E-03
   41 0.22669228031789E-04
   42 0.42609745178415E-04
   43 0.58914773014113E-16
   44 0.83408567364134E-05
   45 -.30796301927494E-16
   46 0.26751932909116E-03
   47 -.30393438946947E-04
   48 -.41704077781510E-02
   49 -.10065588426760E-04
   50 0.81084840492091E-16
   51 -.15844924261248E-03
   52 -.35376637375343E-04
   53 0.34007883320048E-16
   54 -.32808938726001E-02
   55 0.13134870046873E-03
   56 0.22669228011651E-04
   57 0.42609745171628E-04
   58 0.13425111002767E-15
   59 -.83408567267631E-05
   60 0.13377614901377E-15
   61 -.13187630118886E-02
   62 0.39334222956428E-02
   63 -.13187630121997E-02
   64 0.39334222971109E-02
   65 -.13187630118886E-02
   66 0.39334222956433E-02
   67 -.13187630121997E-02
   68 0.39334222971099E-02
 Sym=    5a   
 Ene= -.14011263617460E+01
 Spin= Alpha
 Occup= 2.000000
    1 -.99399037637903E-01
    2 0.18287486209531E+00
    3 0.29512737943169E-01
    4 -.17971118496905E-03
    5 -.12241235562399E-16
    6 -.13552384582133E+00
    7 -.88829356714354E-03
    8 0.17353088460053E-14
    9 -.15384178137754E-01
   10 -.12737494209719E-02
   11 -.53010200395267E-04
   12 0.18983232858016E-01
   13 0.15193619173844E-15
   14 0.65331749954917E-04
   15 -.97781378496473E-16
   16 -.99399037638076E-01
   17 0.18287486209563E+00
   18 0.29512737943187E-01
   19 0.17971118497104E-03
   20 -.38211945127860E-15
   21 -.13552384582156E+00
   22 0.88829356713986E-03
   23 -.16716855349558E-14
   24 -.15384178137767E-01
   25 -.12737494209753E-02
   26 -.53010200395141E-04
   27 0.18983232858047E-01
   28 -.20981563354609E-15
   29 -.65331749954399E-04
   30 0.30226638167339E-16
   31 0.17933997755528E+00
   32 0.35359060969205E+00
   33 0.17190495641836E+00
   34 -.14062266443840E-03
   35 -.97668959011602E-15
   36 0.10620865706419E+00
   37 0.34556302602406E-03
   38 -.93029050132141E-16
   39 0.14961589542922E-01
   40 0.22907608621698E-02
   41 0.21149868145658E-02
   42 0.11702267263940E-01
   43 0.27087570562346E-15
   44 -.27580090108015E-04
   45 0.55698388308787E-16
   46 0.17933997755558E+00
   47 0.35359060969266E+00
   48 0.17190495641869E+00
   49 0.14062266443844E-03
   50 0.12076844185358E-15
   51 0.10620865706437E+00
   52 -.34556302602357E-03
   53 0.19051056182853E-15
   54 0.14961589542958E-01
   55 0.22907608621729E-02
   56 0.21149868145692E-02
   57 0.11702267263960E-01
   58 0.19549237471050E-15
   59 0.27580090108212E-04
   60 0.34395846923053E-15
   61 0.19923613938610E-01
   62 0.11388225694872E-02
   63 0.19923613938643E-01
   64 0.11388225695001E-02
   65 0.19923613938610E-01
   66 0.11388225694915E-02
   67 0.19923613938646E-01
   68 0.11388225694961E-02
 Sym=    6a   
 Ene= -.14000365468378E+01
 Spin= Alpha
 Occup= 2.000000
    1 -.99473036932436E-01
    2 0.18370141582058E+00
    3 0.24492991108984E-01
    4 -.21715467968093E-03
    5 0.43265806140553E-15
    6 -.13566608346382E+00
    7 0.10447426123055E-02
    8 0.22594028923198E-14
    9 -.14213140217124E-01
   10 -.12032848685081E-02
   11 -.25916857184701E-04
   12 0.18962431586091E-01
   13 -.16621266644236E-15
   14 -.52391232292222E-04
   15 0.27025272827227E-15
   16 0.99473036932266E-01
   17 -.18370141582027E+00
   18 -.24492991108932E-01
   19 -.21715467968075E-03
   20 -.23109533721048E-15
   21 0.13566608346359E+00
   22 0.10447426123059E-02
   23 0.17064402489950E-15
   24 0.14213140217094E-01
   25 0.12032848685080E-02
   26 0.25916857185703E-04
   27 -.18962431586059E-01
   28 0.26819496823420E-15
   29 -.52391232292520E-04
   30 0.17099723057747E-15
   31 0.17965325630566E+00
   32 0.35376064551779E+00
   33 0.17559513736296E+00
   34 0.34851861749085E-03
   35 0.14657045471864E-15
   36 0.10639801799098E+00
   37 0.26515725981261E-03
   38 0.10901764206317E-15
   39 0.16182720220113E-01
   40 0.21707705390565E-02
   41 0.20368310238150E-02
   42 0.11689115096525E-01
   43 0.34059617970326E-17
   44 -.23401543025262E-04
   45 -.12393477694726E-15
   46 -.17965325630535E+00
   47 -.35376064551718E+00
   48 -.17559513736267E+00
   49 0.34851861749051E-03
   50 -.54390194202166E-16
   51 -.10639801799079E+00
   52 0.26515725981173E-03
   53 0.20186910173291E-15
   54 -.16182720220084E-01
   55 -.21707705390547E-02
   56 -.20368310238131E-02
   57 -.11689115096502E-01
   58 0.17760123480885E-15
   59 -.23401543025624E-04
   60 -.14035959152545E-15
   61 0.20238990978193E-01
   62 0.17408695617563E-02
   63 -.20238990978160E-01
   64 -.17408695617557E-02
   65 0.20238990978194E-01
   66 0.17408695617581E-02
   67 -.20238990978160E-01
   68 -.17408695617537E-02
 Sym=    7a   
 Ene= -.86523107622059E+00
 Spin= Alpha
 Occup= 2.000000
    1 -.13813363743497E+00
    2 0.27715598011159E+00
    3 0.11932579321970E+00
    4 -.23418368966885E-02
    5 -.25524829645740E-15
    6 0.13983491646933E+00
    7 -.28287724215054E-02
    8 0.55751844113550E-14
    9 0.56584295714860E-01
   10 0.53928161877171E-02
   11 0.21329325088693E-01
   12 0.12156415691110E-01
   13 0.16653345369377E-15
   14 0.15314030880162E-04
   15 0.10358196505383E-15
   16 -.13813363743488E+00
   17 0.27715598011144E+00
   18 0.11932579321960E+00
   19 0.23418368966894E-02
   20 -.16184970030864E-14
   21 0.13983491646925E+00
   22 0.28287724215032E-02
   23 -.19101473874850E-14
   24 0.56584295714816E-01
   25 0.53928161877111E-02
   26 0.21329325088678E-01
   27 0.12156415691100E-01
   28 -.14571677198205E-15
   29 -.15314030880642E-04
   30 0.10862350515589E-15
   31 -.80451942573861E-01
   32 -.16679203091634E+00
   33 -.14767204392694E+00
   34 -.20762338429143E-02
   35 -.76348161733714E-15
   36 0.91756321981268E-01
   37 -.98841882101810E-04
   38 -.10270647179955E-14
   39 0.45841258389946E-01
   40 -.23423189871752E-02
   41 -.32511677112329E-02
   42 -.17858294945792E-03
   43 0.41633363423443E-16
   44 -.87435059993522E-04
   45 0.20155996012863E-16
   46 -.80451942573812E-01
   47 -.16679203091623E+00
   48 -.14767204392685E+00
   49 0.20762338429143E-02
   50 -.32562656997887E-15
   51 0.91756321981206E-01
   52 0.98841882102820E-04
   53 -.41970821349629E-15
   54 0.45841258389915E-01
   55 -.23423189871737E-02
   56 -.32511677112315E-02
   57 -.17858294945817E-03
   58 0.33306690738755E-15
   59 0.87435059994150E-04
   60 -.73176870379194E-16
   61 0.16065009230073E+00
   62 0.19401138077211E-01
   63 0.16065009230063E+00
   64 0.19401138077222E-01
   65 0.16065009230073E+00
   66 0.19401138077221E-01
   67 0.16065009230063E+00
   68 0.19401138077219E-01
 Sym=    8a   
 Ene= -.86133002596230E+00
 Spin= Alpha
 Occup= 2.000000
    1 -.13931372714636E+00
    2 0.27936895368446E+00
    3 0.12265114004221E+00
    4 0.67591092663909E-03
    5 -.18735013540550E-15
    6 0.13927788909042E+00
    7 -.19523919238390E-03
    8 0.51902926401226E-14
    9 0.56978562994747E-01
   10 0.52169380579087E-02
   11 0.21343207284065E-01
   12 0.12304212430636E-01
   13 0.94867690092482E-16
   14 -.29580873563373E-03
   15 -.66613381477509E-15
   16 0.13931372714645E+00
   17 -.27936895368465E+00
   18 -.12265114004226E+00
   19 0.67591092663727E-03
   20 0.19220736113823E-14
   21 -.13927788909050E+00
   22 -.19523919238670E-03
   23 0.92981178312357E-15
   24 -.56978562994772E-01
   25 -.52169380579086E-02
   26 -.21343207284075E-01
   27 -.12304212430641E-01
   28 0.94542429440736E-16
   29 -.29580873563348E-03
   30 -.44408920985006E-15
   31 -.80509718922332E-01
   32 -.16736940009430E+00
   33 -.14762274278624E+00
   34 0.73266722811929E-03
   35 -.31485231088979E-15
   36 0.94208935531440E-01
   37 -.28243227474588E-03
   38 -.13877787807814E-14
   39 0.47090116618225E-01
   40 -.24916999132349E-02
   41 -.33919104139320E-02
   42 -.16711685251201E-03
   43 -.18159031136417E-15
   44 0.10812449052569E-03
   45 -.83266726846887E-15
   46 0.80509718922380E-01
   47 0.16736940009440E+00
   48 0.14762274278633E+00
   49 0.73266722811679E-03
   50 0.13097162243625E-15
   51 -.94208935531492E-01
   52 -.28243227474656E-03
   53 -.11102230246252E-15
   54 -.47090116618250E-01
   55 0.24916999132362E-02
   56 0.33919104139347E-02
   57 0.16711685251244E-03
   58 -.85225067020939E-16
   59 0.10812449052606E-03
   60 -.83266726846887E-15
   61 0.16171017712007E+00
   62 0.17837949727477E-01
   63 -.16171017712016E+00
   64 -.17837949727503E-01
   65 0.16171017712007E+00
   66 0.17837949727484E-01
   67 -.16171017712017E+00
   68 -.17837949727502E-01
 Sym=    9a   
 Ene= -.70404823467764E+00
 Spin= Alpha
 Occup= 2.000000
    1 -.24459601011273E-15
    2 -.57245874707235E-15
    3 0.14543921622590E-13
    4 -.27582103268031E-15
    5 0.29386982321766E+00
    6 -.12732870313670E-14
    7 -.28969882048813E-15
    8 0.10341168974583E+00
    9 -.33306690738755E-15
   10 -.15443790428546E-14
   11 0.89811161132073E-15
   12 0.28380138212289E-15
   13 -.28957323829435E-03
   14 -.85435131191858E-16
   15 0.41838749132440E-02
   16 -.77021722333370E-15
   17 0.32231162183649E-14
   18 -.10574874309555E-13
   19 0.20708261494473E-15
   20 0.29386982321828E+00
   21 0.15317608292875E-14
   22 -.30097452308198E-15
   23 0.10341168974606E+00
   24 -.21510571102112E-15
   25 -.90961806745243E-15
   26 0.13940947086448E-14
   27 0.27228461257091E-15
   28 0.28957323829435E-03
   29 -.33935527998796E-16
   30 0.41838749132538E-02
   31 -.39118014383277E-15
   32 0.37816971776294E-15
   33 -.75356387796433E-14
   34 0.34480339590470E-15
   35 0.24158084711781E+00
   36 0.16219664500383E-14
   37 0.25717275531356E-15
   38 0.14126098896201E+00
   39 -.15508427875233E-14
   40 -.58422368110805E-16
   41 0.37178905393145E-15
   42 0.76309511877883E-16
   43 0.23041389848470E-04
   44 0.36862873864507E-16
   45 0.15788461679118E-01
   46 0.19949319973733E-16
   47 -.18041124150159E-15
   48 0.27200464103316E-14
   49 0.24768598630431E-15
   50 0.24158084711832E+00
   51 0.99746599868666E-16
   52 0.15070410197549E-15
   53 0.14126098896231E+00
   54 0.47531423241765E-15
   55 -.43070067921997E-15
   56 0.21461645384340E-15
   57 -.66358772735335E-17
   58 -.23041389848644E-04
   59 0.45970172113385E-16
   60 0.15788461679151E-01
   61 0.16644019505307E+00
   62 0.37300327906646E-01
   63 0.16644019505342E+00
   64 0.37300327906719E-01
   65 -.16644019505307E+00
   66 -.37300327906655E-01
   67 -.16644019505342E+00
   68 -.37300327906708E-01
 Sym=   10a   
 Ene= -.70149763911217E+00
 Spin= Alpha
 Occup= 2.000000
    1 0.76487070821791E-15
    2 -.20819157741023E-14
    3 0.13511147940337E-13
    4 -.67263863116338E-15
    5 0.29488987968416E+00
    6 0.10410338955102E-13
    7 -.84359371259057E-15
    8 0.10488363894090E+00
    9 0.44789577512304E-15
   10 -.43678354613096E-16
   11 0.14265415378754E-15
   12 -.27141171081655E-15
   13 -.46304284846789E-04
   14 -.78380113242556E-16
   15 0.39801668299546E-02
   16 0.10542982918036E-14
   17 -.39174759584808E-14
   18 0.11288745702395E-13
   19 0.39347203587422E-15
   20 -.29488987968354E+00
   21 0.55350165763866E-14
   22 -.48833678968105E-15
   23 -.10488363894070E+00
   24 0.40142904417477E-14
   25 -.24338030209605E-15
   26 -.42887401331017E-16
   27 -.44155016359091E-15
   28 -.46304284846058E-04
   29 0.40935111620417E-16
   30 -.39801668299476E-02
   31 0.23488435290695E-14
   32 0.57270276708549E-14
   33 0.18942172489819E-14
   34 0.75593662935109E-15
   35 0.24379193277149E+00
   36 -.14763713415093E-13
   37 0.39108196844165E-15
   38 0.14239232731414E+00
   39 -.10618175094455E-13
   40 0.37400061363890E-15
   41 0.30895820969815E-15
   42 -.32713712758355E-15
   43 0.10334157440986E-03
   44 -.64591140490881E-16
   45 0.15871922647894E-01
   46 0.19133935187148E-14
   47 0.43195502418831E-14
   48 0.44948507491796E-14
   49 0.19727927481974E-15
   50 -.24379193277098E+00
   51 -.91987478449322E-14
   52 0.62888688016370E-15
   53 -.14239232731384E+00
   54 -.52632596414356E-14
   55 0.21110021554304E-15
   56 0.14609055824047E-15
   57 -.24873083618248E-15
   58 0.10334157440972E-03
   59 0.24900372750146E-16
   60 -.15871922647861E-01
   61 0.16716971480043E+00
   62 0.34307792015810E-01
   63 -.16716971480008E+00
   64 -.34307792015728E-01
   65 -.16716971480043E+00
   66 -.34307792015816E-01
   67 0.16716971480008E+00
   68 0.34307792015718E-01
 Sym=   11a   
 Ene= -.65663769260527E+00
 Spin= Alpha
 Occup= 2.000000
    1 0.22885321897269E-01
    2 -.65218172097940E-01
    3 0.61781766291158E-01
    4 -.38901891946492E-02
    5 -.93779151111306E-14
    6 0.26651365436894E+00
    7 -.22314525565510E-02
    8 -.22898349882894E-14
    9 0.50893825173960E-01
   10 0.18398895552859E-02
   11 0.92091160830868E-02
   12 -.98982240716509E-02
   13 0.11384122811098E-15
   14 0.13899400079251E-03
   15 -.73552275381417E-15
   16 0.22885321897145E-01
   17 -.65218172097579E-01
   18 0.61781766290736E-01
   19 0.38901891946734E-02
   20 0.96832264429025E-14
   21 0.26651365436735E+00
   22 0.22314525565488E-02
   23 0.24841240175988E-14
   24 0.50893825173667E-01
   25 0.18398895552763E-02
   26 0.92091160830296E-02
   27 -.98982240715917E-02
   28 -.31441863002080E-16
   29 -.13899400079427E-03
   30 -.23592239273285E-15
   31 0.68972106807625E-01
   32 0.14269039548883E+00
   33 0.20842085336088E+00
   34 -.39033137824153E-02
   35 -.61270433171501E-14
   36 -.36035638430433E+00
   37 -.34987636805943E-02
   38 -.36221026178396E-14
   39 -.19620628472817E+00
   40 0.49592621700729E-02
   41 0.57613978302469E-02
   42 -.97311762646900E-02
   43 0.99204498782424E-17
   44 -.46841757355803E-03
   45 -.64531713306337E-15
   46 0.68972106807214E-01
   47 0.14269039548796E+00
   48 0.20842085335970E+00
   49 0.39033137824493E-02
   50 0.86597395920762E-14
   51 -.36035638430219E+00
   52 0.34987636806340E-02
   53 0.51798842992667E-14
   54 -.19620628472700E+00
   55 0.49592621700412E-02
   56 0.57613978302101E-02
   57 -.97311762646350E-02
   58 0.44045713257224E-15
   59 0.46841757356020E-03
   60 0.32265856653169E-15
   61 0.80501674529068E-01
   62 0.17704279511235E-01
   63 0.80501674528595E-01
   64 0.17704279511141E-01
   65 0.80501674529079E-01
   66 0.17704279511239E-01
   67 0.80501674528582E-01
   68 0.17704279511138E-01
 Sym=   12a   
 Ene= -.65500306075789E+00
 Spin= Alpha
 Occup= 2.000000
    1 0.21421640180470E-01
    2 -.62861166009108E-01
    3 0.66890295188346E-01
    4 0.38553858736860E-02
    5 -.14145470435635E-14
    6 0.26766629202252E+00
    7 0.91842932885678E-04
    8 -.32881075648460E-15
    9 0.54903949295818E-01
   10 0.16827522466255E-02
   11 0.94647018597809E-02
   12 -.99203712723843E-02
   13 -.28292014374313E-16
   14 -.33812715011998E-03
   15 0.22173026752932E-15
   16 -.21421640180608E-01
   17 0.62861166009507E-01
   18 -.66890295188702E-01
   19 0.38553858736619E-02
   20 0.32914025456565E-14
   21 -.26766629202410E+00
   22 0.91842932870184E-04
   23 0.17315466320755E-14
   24 -.54903949296145E-01
   25 -.16827522466363E-02
   26 -.94647018598340E-02
   27 0.99203712724425E-02
   28 -.19225498731941E-16
   29 -.33812715011873E-03
   30 0.91160666322050E-16
   31 0.69103423161065E-01
   32 0.14359292391113E+00
   33 0.20791968545851E+00
   34 0.56363026471667E-02
   35 -.10938237414776E-14
   36 -.36011119809188E+00
   37 0.65616288010088E-02
   38 -.67629893628071E-15
   39 -.19527754072243E+00
   40 0.50511743725214E-02
   41 0.59405899375892E-02
   42 -.94801431048795E-02
   43 -.90300906218340E-16
   44 0.33959243682660E-03
   45 -.17941392758264E-15
   46 -.69103423161475E-01
   47 -.14359292391197E+00
   48 -.20791968545979E+00
   49 0.56363026471418E-02
   50 0.23774560275237E-14
   51 0.36011119809402E+00
   52 0.65616288009868E-02
   53 0.13785003644515E-14
   54 0.19527754072359E+00
   55 -.50511743725493E-02
   56 -.59405899376219E-02
   57 0.94801431049384E-02
   58 0.51396743596961E-16
   59 0.33959243682371E-03
   60 0.32440443321942E-15
   61 0.81853541539370E-01
   62 0.15690631765839E-01
   63 -.81853541539848E-01
   64 -.15690631765938E-01
   65 0.81853541539372E-01
   66 0.15690631765839E-01
   67 -.81853541539850E-01
   68 -.15690631765937E-01
 Sym=   13a   
 Ene= -.55150868689104E+00
 Spin= Alpha
 Occup= 2.000000
    1 -.23866775975643E-02
    2 0.64974954946912E-02
    3 -.53626298035299E-02
    4 0.24138416558314E+00
    5 -.91302890640398E-15
    6 0.63204191645714E-02
    7 0.14903743696610E+00
    8 -.91668461692678E-15
    9 0.62563066441500E-02
   10 -.25330789455572E-03
   11 0.85671880550448E-03
   12 0.28230454910145E-03
   13 -.72363608302380E-17
   14 -.29772939681464E-01
   15 -.32727195877658E-15
   16 -.23866775975647E-02
   17 0.64974954946929E-02
   18 -.53626298035314E-02
   19 -.24138416558317E+00
   20 0.40267760517152E-14
   21 0.63204191645722E-02
   22 -.14903743696611E+00
   23 0.87720743357513E-15
   24 0.62563066441500E-02
   25 -.25330789455596E-03
   26 0.85671880550454E-03
   27 0.28230454910147E-03
   28 0.41383017940119E-16
   29 0.29772939681468E-01
   30 0.13810316944772E-14
   31 0.17794340490833E-02
   32 0.38089673997013E-02
   33 0.79320223288835E-02
   34 0.33681213771292E+00
   35 0.38100237757508E-14
   36 -.46101507356878E-02
   37 0.24015793630238E+00
   38 0.30703026408320E-14
   39 -.14767219079626E-02
   40 0.25226424297435E-04
   41 0.22545468641796E-03
   42 0.36658281982148E-04
   43 -.61760040601168E-16
   44 0.23210259050903E-01
   45 0.17642475742792E-15
   46 0.17794340490835E-02
   47 0.38089673997023E-02
   48 0.79320223288835E-02
   49 -.33681213771297E+00
   50 -.10790820505809E-13
   51 -.46101507356884E-02
   52 -.24015793630241E+00
   53 -.83287390829507E-14
   54 -.14767219079628E-02
   55 0.25226424297375E-04
   56 0.22545468641797E-03
   57 0.36658281982097E-04
   58 0.15788803002175E-15
   59 -.23210259050905E-01
   60 -.22916532787642E-15
   61 0.52456109177640E-02
   62 0.10838927980220E-02
   63 0.52456109177706E-02
   64 0.10838927980273E-02
   65 0.52456109177672E-02
   66 0.10838927980251E-02
   67 0.52456109177608E-02
   68 0.10838927980213E-02
 Sym=   14a   
 Ene= -.53235069902007E+00
 Spin= Alpha
 Occup= 2.000000
    1 0.15932179968499E-02
    2 -.47394326967450E-02
    3 0.76667347453068E-02
    4 0.24764007188623E+00
    5 -.89232152979410E-15
    6 -.62072384990693E-02
    7 0.14892245614169E+00
    8 -.10495273075472E-14
    9 -.10720845637306E-01
   10 0.39807979820076E-04
   11 -.71173700398120E-03
   12 0.47340458468927E-04
   13 0.22811719925698E-15
   14 -.31383324914596E-01
   15 -.25734984941913E-15
   16 -.15932179968503E-02
   17 0.47394326967455E-02
   18 -.76667347453126E-02
   19 0.24764007188619E+00
   20 0.49261296673911E-16
   21 0.62072384990706E-02
   22 0.14892245614166E+00
   23 0.15428254462571E-15
   24 0.10720845637310E-01
   25 -.39807979820037E-04
   26 0.71173700398110E-03
   27 -.47340458469330E-04
   28 0.23163875980559E-15
   29 -.31383324914592E-01
   30 -.81531529428731E-16
   31 -.27766594693631E-02
   32 -.59780602893549E-02
   33 -.13118664904402E-01
   34 0.35036122842944E+00
   35 0.16342715371262E-14
   36 0.65062661177886E-02
   37 0.24468966269722E+00
   38 0.14041530439810E-14
   39 0.73027854364485E-03
   40 0.76295561148760E-04
   41 -.31612467350805E-03