[Molden Format]
[Atoms] (Angs)
  N      1    7      0.00000000     -0.00000000      1.11738466
  H      2    1      0.00000000     -0.00000000      2.12136066
  C      3    6      1.12201016     -0.00000000      0.33463977
  H      4    1      2.10556415     -0.00000000      0.76898420
  C      5    6     -1.12201016      0.00000000      0.33463977
  H      6    1     -2.10556415      0.00000000      0.76898420
  C      7    6     -0.70797599     -0.00000000     -0.98428136
  H      8    1     -1.35674211      0.00000000     -1.84266130
  C      9    6      0.70797599      0.00000000     -0.98428136
  H     10    1      1.35674211      0.00000000     -1.84266130
[GTO]
1    0
S    7    1.000000
   9.04600000E+03    7.00000000E-04 
   1.35700000E+03    5.38983000E-03 
   3.09300000E+02    2.74060000E-02 
   8.77300000E+01    1.03262320E-01 
   2.85600000E+01    2.78905240E-01 
   1.02100000E+01    4.50217400E-01 
   3.83800000E+00    2.79943000E-01 
S    7    1.000000
   9.04600000E+03    5.00000000E-08 
   1.35700000E+03   -2.97600000E-05 
   8.77300000E+01   -1.97900000E-03 
   2.85600000E+01   -6.51949000E-03 
   1.02100000E+01   -6.00100000E-02 
   3.83800000E+00   -6.09975300E-02 
   7.46600000E-01    5.52378750E-01 
S    1    1.000000
   2.24800000E-01    1.00000000E+00 
P    3    1.000000
   1.35500000E+01    3.99190000E-02 
   2.91700000E+00    2.17169000E-01 
   7.97300000E-01    5.10319000E-01 
P    1    1.000000
   2.18500000E-01    1.00000000E+00 
D    1    1.000000
   8.17000000E-01    1.00000000E+00 

2    0
S    3    1.000000
   1.30100000E+01    1.96850000E-02 
   1.96200000E+00    1.37977000E-01 
   4.44600000E-01    4.78148000E-01 
S    1    1.000000
   1.22000000E-01    1.00000000E+00 
P    1    1.000000
   7.27000000E-01    1.00000000E+00 

3    0
S    7    1.000000
   6.66500000E+03    6.91990000E-04 
   1.00000000E+03    5.32976000E-03 
   2.28000000E+02    2.70770000E-02 
   6.47100000E+01    1.01768130E-01 
   2.10600000E+01    2.74902850E-01 
   7.49500000E+00    4.50094590E-01 
   2.79700000E+00    2.86933450E-01 
S    7    1.000000
   6.66500000E+03    3.10000000E-07 
   1.00000000E+03   -2.72700000E-05 
   6.47100000E+01   -1.80535000E-03 
   2.10600000E+01   -5.86561000E-03 
   7.49500000E+00   -5.51393100E-02 
   2.79700000E+00   -6.69876600E-02 
   5.21500000E-01    5.47743760E-01 
S    1    1.000000
   1.59600000E-01    1.00000000E+00 
P    3    1.000000
   9.43900000E+00    3.81090000E-02 
   2.00200000E+00    2.09480000E-01 
   5.45600000E-01    5.08557000E-01 
P    1    1.000000
   1.51700000E-01    1.00000000E+00 
D    1    1.000000
   5.50000000E-01    1.00000000E+00 

4    0
S    3    1.000000
   1.30100000E+01    1.96850000E-02 
   1.96200000E+00    1.37977000E-01 
   4.44600000E-01    4.78148000E-01 
S    1    1.000000
   1.22000000E-01    1.00000000E+00 
P    1    1.000000
   7.27000000E-01    1.00000000E+00 

5    0
S    7    1.000000
   6.66500000E+03    6.91990000E-04 
   1.00000000E+03    5.32976000E-03 
   2.28000000E+02    2.70770000E-02 
   6.47100000E+01    1.01768130E-01 
   2.10600000E+01    2.74902850E-01 
   7.49500000E+00    4.50094590E-01 
   2.79700000E+00    2.86933450E-01 
S    7    1.000000
   6.66500000E+03    3.10000000E-07 
   1.00000000E+03   -2.72700000E-05 
   6.47100000E+01   -1.80535000E-03 
   2.10600000E+01   -5.86561000E-03 
   7.49500000E+00   -5.51393100E-02 
   2.79700000E+00   -6.69876600E-02 
   5.21500000E-01    5.47743760E-01 
S    1    1.000000
   1.59600000E-01    1.00000000E+00 
P    3    1.000000
   9.43900000E+00    3.81090000E-02 
   2.00200000E+00    2.09480000E-01 
   5.45600000E-01    5.08557000E-01 
P    1    1.000000
   1.51700000E-01    1.00000000E+00 
D    1    1.000000
   5.50000000E-01    1.00000000E+00 

6    0
S    3    1.000000
   1.30100000E+01    1.96850000E-02 
   1.96200000E+00    1.37977000E-01 
   4.44600000E-01    4.78148000E-01 
S    1    1.000000
   1.22000000E-01    1.00000000E+00 
P    1    1.000000
   7.27000000E-01    1.00000000E+00 

7    0
S    7    1.000000
   6.66500000E+03    6.91990000E-04 
   1.00000000E+03    5.32976000E-03 
   2.28000000E+02    2.70770000E-02 
   6.47100000E+01    1.01768130E-01 
   2.10600000E+01    2.74902850E-01 
   7.49500000E+00    4.50094590E-01 
   2.79700000E+00    2.86933450E-01 
S    7    1.000000
   6.66500000E+03    3.10000000E-07 
   1.00000000E+03   -2.72700000E-05 
   6.47100000E+01   -1.80535000E-03 
   2.10600000E+01   -5.86561000E-03 
   7.49500000E+00   -5.51393100E-02 
   2.79700000E+00   -6.69876600E-02 
   5.21500000E-01    5.47743760E-01 
S    1    1.000000
   1.59600000E-01    1.00000000E+00 
P    3    1.000000
   9.43900000E+00    3.81090000E-02 
   2.00200000E+00    2.09480000E-01 
   5.45600000E-01    5.08557000E-01 
P    1    1.000000
   1.51700000E-01    1.00000000E+00 
D    1    1.000000
   5.50000000E-01    1.00000000E+00 

8    0
S    3    1.000000
   1.30100000E+01    1.96850000E-02 
   1.96200000E+00    1.37977000E-01 
   4.44600000E-01    4.78148000E-01 
S    1    1.000000
   1.22000000E-01    1.00000000E+00 
P    1    1.000000
   7.27000000E-01    1.00000000E+00 

9    0
S    7    1.000000
   6.66500000E+03    6.91990000E-04 
   1.00000000E+03    5.32976000E-03 
   2.28000000E+02    2.70770000E-02 
   6.47100000E+01    1.01768130E-01 
   2.10600000E+01    2.74902850E-01 
   7.49500000E+00    4.50094590E-01 
   2.79700000E+00    2.86933450E-01 
S    7    1.000000
   6.66500000E+03    3.10000000E-07 
   1.00000000E+03   -2.72700000E-05 
   6.47100000E+01   -1.80535000E-03 
   2.10600000E+01   -5.86561000E-03 
   7.49500000E+00   -5.51393100E-02 
   2.79700000E+00   -6.69876600E-02 
   5.21500000E-01    5.47743760E-01 
S    1    1.000000
   1.59600000E-01    1.00000000E+00 
P    3    1.000000
   9.43900000E+00    3.81090000E-02 
   2.00200000E+00    2.09480000E-01 
   5.45600000E-01    5.08557000E-01 
P    1    1.000000
   1.51700000E-01    1.00000000E+00 
D    1    1.000000
   5.50000000E-01    1.00000000E+00 

10    0
S    3    1.000000
   1.30100000E+01    1.96850000E-02 
   1.96200000E+00    1.37977000E-01 
   4.44600000E-01    4.78148000E-01 
S    1    1.000000
   1.22000000E-01    1.00000000E+00 
P    1    1.000000
   7.27000000E-01    1.00000000E+00 

[MO]
Sym=X
Ene= 2.000000
Spin=Alpha
Occup=1
     1   -7.098787781607e-01
     2   -1.296950893453e-02
     3    8.877228581621e-03
     4   -8.000877223484e-05
     5   -3.050259505946e-14
     6    1.009439781735e-04
     7    4.958536063485e-04
     8   -1.998653392360e-14
     9   -3.550724706860e-03
    10   -9.129857392211e-05
    11   -1.305888986811e-04
    12   -3.918128558100e-16
    13    2.496580431513e-04
    14    7.597970787386e-17
    15    5.627008990851e-04
    16    3.068410312469e-04
    17   -6.940006506967e-05
    18   -5.304918360655e-16
    19   -3.757568131593e-04
    20   -5.760346290359e-01
    21   -1.040259295342e-02
    22    1.804186909310e-05
    23    4.711665830831e-04
    24   -2.304533584579e-14
    25   -6.486295176169e-04
    26    2.622462282863e-03
    27   -1.297654626076e-14
    28   -3.849500568708e-04
    29   -6.334872550017e-08
    30   -4.202315349181e-04
    31   -1.271323272445e-15
    32   -6.039148916827e-04
    33    2.558986119657e-15
    34    5.023179836704e-04
    35   -1.408621986687e-03
    36   -5.217474502931e-04
    37   -1.110668608277e-15
    38   -1.704114882399e-05
    39   -8.315312373132e-02
    40   -1.346904450767e-03
    41   -5.014971575794e-03
    42   -1.845571682501e-04
    43   -1.273341403653e-14
    44   -2.475104122980e-04
    45   -3.604687057405e-03
    46   -8.759338395517e-15
    47    1.527965072020e-03
    48    6.107976107426e-05
    49    4.613763336209e-05
    50   -1.539598845236e-15
    51   -5.050129706089e-05
    52   -1.985610201777e-15
    53   -9.684945855987e-05
    54   -1.339241312368e-03
    55    1.016912745363e-04
    56   -8.037813017182e-16
    57    1.910684860547e-05
    58   -3.895659078353e-01
    59   -7.210625120841e-03
    60    5.562085275386e-03
    61   -1.087142872587e-04
    62   -9.824827888535e-15
    63    9.954514960281e-05
    64    7.400069481808e-04
    65   -4.362070941014e-15
    66    2.155495416960e-03
    67   -1.627349083400e-04
    68   -3.561202699349e-04
    69   -2.095972074733e-15
    70   -2.580198221758e-04
    71    1.378939570770e-15
    72    4.809707176330e-04
    73    4.795070377666e-05
    74    1.874783538988e-04
    75    3.915452990782e-16
    76    2.012202262505e-04
    77    1.851098604021e-02
    78    6.117052413694e-04
    79   -7.829537050564e-04
    80    1.020785820780e-04
    81   -1.746069636271e-14
    82    1.492741940434e-04
    83   -4.252604722031e-04
    84   -9.806731022202e-15
    85    1.032128920166e-04
    86    2.276178987837e-04
    87   -3.205002359037e-04
    88   -1.705584256072e-15
    89    2.105957320688e-04
    90    2.768862809504e-15
    91   -1.508445360972e-04
    92    7.709367524572e-05
    93    1.304284351396e-04
    94   -2.689936049008e-16
    95   -1.992649884891e-04
Sym=X
Ene= 2.000000
Spin=Alpha
Occup=1
     1   -5.981393066357e-01
     2   -1.035824144926e-02
     3    4.589226410633e-03
     4    1.210737730237e-04
     5    3.171761783176e-15
     6   -5.392303753500e-05
     7   -6.952141835229e-04
     8    2.608597304755e-15
     9   -1.000354219708e-03
    10   -2.140130331396e-04
    11    2.049120618354e-04
    12   -6.385300524356e-16
    13   -3.464480313268e-05
    14    5.063028160025e-16
    15    2.759315166910e-04
    16   -6.051744779530e-05
    17    9.547637097722e-05
    18    3.062755677548e-16
    19   -4.321279185742e-04
    20    4.067574596251e-01
    21    7.371670708038e-03
    22   -5.243298218345e-03
    23   -2.014154698225e-04
    24    9.054771205607e-15
    25    2.964164161902e-04
    26    1.690581062904e-03
    27    6.125211690316e-15
    28    1.144119941821e-03
    29   -2.066640232604e-07
    30    1.268497371584e-04
    31   -8.049611870245e-16
    32    5.163185859414e-04
    33   -1.358395815387e-16
    34   -4.336619878721e-04
    35   -6.633337369440e-05
    36    2.607438802573e-04
    37    5.742136433617e-16
    38    1.096845430801e-04
    39   -3.452387629990e-01
    40   -6.487116662423e-03
    41    2.924104803684e-03
    42   -2.475359574138e-04
    43   -2.047689619926e-15
    44   -3.163631453869e-04
    45    1.002229755645e-05
    46   -3.126819152334e-15
    47   -1.893715188327e-03
    48   -9.715667715764e-05
    49    5.101649748090e-04
    50   -3.552580318782e-16
    51   -3.944034982027e-04
    52    4.397776186073e-16
    53    5.285058337716e-04
    54   -1.171742683872e-04
    55    4.117374058141e-04
    56    4.196142114926e-16
    57    4.355981630376e-05
    58    5.521956742254e-01
    59    1.041305937440e-02
    60   -6.672070211384e-03
    61   -4.230540899067e-05
    62    1.725123881304e-16
    63    1.093591801800e-04
    64   -1.720411096134e-04
    65   -8.339744755668e-16
    66   -1.602053051952e-03
    67    3.944275102523e-04
    68    5.900115793888e-04
    69   -7.819421329361e-16
    70    3.728041221214e-04
    71    1.433310953063e-15
    72   -5.724796534177e-04
    73    3.654345384830e-04
    74   -3.268240450475e-04
    75    2.461868353863e-16
    76   -4.016971371934e-04
    77   -2.186693913519e-01
    78   -4.296425674556e-03
    79    4.833204368304e-03
    80    5.209066975363e-05
    81    6.672323748504e-15
    82    2.610398924407e-05
    83   -7.587027493019e-04
    84    6.808946807997e-15
    85    1.824220134454e-03
    86   -2.896114848995e-04
    87    5.927795368811e-04
    88    4.300394476873e-16
    89   -4.635308838202e-04
    90    3.094263616644e-16
    91    5.617222539069e-04
    92    2.705032566728e-04
    93   -2.295361392885e-04
    94    3.544372874659e-16
    95    3.252084625174e-04
Sym=X
Ene= 2.000000
Spin=Alpha
Occup=1
     1    2.010078000774e-01
     2    3.011311677083e-03
     3    4.044626633761e-04
     4   -2.266588513983e-05
     5    4.901563074143e-15
     6    8.909535132074e-05
     7    2.128937261800e-04
     8    2.487059895747e-15
     9   -9.484767157890e-04
    10    4.855010490041e-04
    11   -2.740991818865e-05
    12    5.849899667988e-16
    13    3.000617571592e-04
    14   -7.224247175054e-16
    15   -1.578613406452e-04
    16    2.153610671547e-04
    17   -3.219558347308e-05
    18   -4.430429184698e-16
    19    4.081997194453e-04
    20   -5.393466846687e-01
    21   -9.818155644910e-03
    22    3.701530774606e-03
    23    3.027826959730e-04
    24    9.416346733083e-15
    25   -3.990625805167e-04
    26    3.256254270723e-04
    27    6.623520448656e-15
    28   -6.959804511138e-04
    29   -1.437179705616e-05
    30   -2.902051302235e-04
    31    8.112863700218e-16
    32   -7.407278161990e-04
    33   -1.902603458773e-15
    34    4.914917864864e-04
    35   -7.076458578402e-04
    36   -4.592881084524e-04
    37    8.892287235436e-16
    38   -1.420082762354e-04
    39   -4.077818378404e-01
    40   -7.456606062249e-03
    41    2.999635324657e-03
    42   -2.416024849784e-04
    43    1.882745478403e-15
    44   -2.930249121467e-04
    45   -3.224841512406e-04
    46    1.105880729658e-15
    47   -3.420246068938e-04
    48   -2.862138501060e-06
    49    2.773692651350e-04
    50    1.490533850153e-16
    51   -6.801795630451e-04
    52   -3.059132132403e-16
    53    3.946137143374e-04
    54   -6.168684037025e-04
    55    3.886614857752e-04
    56    6.570839318405e-17
    57   -1.467719303654e-04
    58    5.397974324254e-01
    59    9.860915844503e-03
    60   -3.987196414320e-03
    61   -7.917097427762e-05
    62    6.094142499615e-15
    63   -1.981630183433e-05
    64    8.887714695675e-05
    65    1.687318766236e-15
    66   -5.617800675429e-04
    67    4.311324974200e-04
    68    2.966891461885e-04
    69    3.497043778563e-17
    70    1.335816051146e-04
    71    1.308678573974e-15
    72   -4.563167362688e-04
    73    5.639662365515e-04
    74   -2.827418536800e-04
    75    1.338124187304e-15
    76   -2.942081733816e-04
    77    4.539998482811e-01
    78    8.304343795654e-03
    79   -3.284432591375e-03
    80    7.695454545100e-05
    81    9.770788594434e-15
    82   -1.623909417426e-05
    83   -5.966058175804e-04
    84    6.885814136521e-15
    85   -7.220306603369e-04
    86    4.191266055116e-04
    87   -2.796773814417e-04
    88    1.866498860041e-15
    89    9.926816485919e-05
    90    7.138110766202e-17
    91   -4.013774083889e-04
    92    5.054595430979e-04
    93    2.739193351301e-04
    94    1.518161865451e-15
    95   -2.489089569572e-04
Sym=X
Ene= 2.000000
Spin=Alpha
Occup=1
     1   -2.990210445538e-01
     2   -4.486265353075e-03
     3   -1.186708118394e-03
     4   -9.796304089864e-05
     5    2.939366590604e-15
     6   -1.927664816930e-04
     7    6.749476130975e-04
     8    2.049583543619e-15
     9    1.894162291944e-03
    10   -2.940526969900e-04
    11   -1.509173382771e-04
    12   -7.381679056711e-16
    13   -3.208012973025e-04
    14    7.861312564705e-16
    15   -8.713398904043e-05
    16   -4.131079979946e-04
    17   -9.671266489116e-05
    18    1.209421503887e-15
    19   -3.678083197070e-04
    20    1.063581799062e-01
    21    1.598473527680e-03
    22    3.055026714912e-03
    23   -1.347658308823e-04
    24   -3.089552506361e-15
    25    2.026012118958e-04
    26   -2.156135628456e-03
    27   -2.714843777018e-15
    28   -2.218059084013e-03
    29   -1.434877856971e-04
    30   -2.518079996211e-04
    31   -3.287597802082e-16
    32    1.738413367714e-04
    33    2.269850799211e-16
    34    1.820789966798e-04
    35    1.160232945034e-03
    36   -2.475285006448e-05
    37   -6.510734146084e-16
    38    1.190490598333e-04
    39    7.022915504282e-01
    40    1.249538051006e-02
    41   -2.429470361765e-03
    42    4.669484791855e-04
    43    2.748191825309e-15
    44    6.866190275861e-04
    45    1.217022550267e-03
    46    2.999436305979e-15
    47   -5.190005607482e-05
    48   -7.406655653796e-05
    49   -1.190072915521e-04
    50    4.276756120412e-16
    51    7.613248857161e-04
    52    1.474661202912e-16
    53   -4.833097266902e-04
    54    1.311788354732e-03
    55   -4.442654749359e-04
    56    7.467311681099e-17
    57    1.492576021831e-04
    58    2.641812558532e-01
    59    4.576231746732e-03
    60   -8.725750534143e-04
    61    2.679960684341e-05
    62   -1.183562808534e-16
    63   -3.494685074687e-05
    64   -1.991986336335e-04
    65   -4.747751935159e-16
    66    1.827182234123e-04
    67   -1.566337712233e-04
    68   -3.211136191477e-04
    69    3.849991069501e-16
    70   -2.676576813893e-04
    71   -5.640825100967e-17
    72    1.367440946982e-04
    73    4.357080160197e-04
    74    5.999884587875e-05
    75    3.562517003469e-16
    76    1.259410103194e-04
    77    5.752204914076e-01
    78    1.062093892062e-02
    79   -6.299990405127e-03
    80   -3.523959610756e-05
    81   -3.984147367276e-15
    82    1.609845081580e-05
    83    2.559008390719e-05
    84   -2.756124109462e-15
    85   -1.935705457544e-03
    86    2.065114273368e-04
    87   -3.119038737713e-04
    88   -1.514278647595e-15
    89    1.496587641699e-04
    90    2.648571080461e-16
    91   -4.177817530538e-04
    92    4.088681911732e-04
    93    2.366443479328e-04
    94   -1.683753162558e-15
    95   -2.157433429073e-04
Sym=X
Ene= 2.000000
Spin=Alpha
Occup=1
     1   -5.763667518364e-02
     2   -9.788756907943e-04
     3    3.005933213842e-04
     4    1.581378161123e-04
     5   -3.163444978624e-15
     6   -1.428814694791e-05
     7   -1.651574504904e-03
     8   -2.247751222427e-15
     9    6.876084993712e-06
    10    5.088556615088e-06
    11    1.692356819198e-04
    12    6.350961739688e-17
    13   -2.884159790400e-06
    14   -3.544165264074e-17
    15   -3.168371101001e-06
    16   -2.346634502981e-05
    17    2.533980609614e-04
    18   -5.779305963580e-16
    19   -2.860730828263e-05
    20    4.419911381149e-01
    21    7.820714268135e-03
    22   -1.319975295351e-03
    23   -1.895918871977e-04
    24    5.356808521630e-15
    25    3.679553795224e-04
    26   -4.003097461801e-04
    27    3.082100206473e-15
    28    8.176622083289e-04
    29    1.756788021602e-05
    30   -1.151694714642e-04
    31   -1.353694279346e-17
    32    7.638866793474e-05
    33    3.114802248893e-16
    34   -2.178687367242e-04
    35    4.441770058600e-04
    36    1.601231399927e-04
    37    7.824803907551e-17
    38   -2.956898221611e-05
    39   -4.574132760847e-01
    40   -8.187673447695e-03
    41    1.915434068459e-03
    42   -1.913174660459e-04
    43   -8.149597857799e-16
    44   -3.544234280582e-04
    45   -2.675149918413e-04
    46   -2.774148739655e-15
    47   -1.220423876942e-03
    48   -4.939399328274e-05
    49   -9.069993463748e-06
    50    5.470193921533e-17
    51   -1.251698654806e-04
    52   -2.324238172400e-16
    53    2.907976798094e-04
    54   -3.524201472482e-04
    55    2.216012041204e-04
    56   -3.741738200539e-16
    57    3.810633814363e-05
    58   -4.207737764536e-01
    59   -7.761610605801e-03
    60    4.491231834786e-03
    61   -1.043313198165e-06
    62    4.478835363409e-15
    63    3.081545176364e-06
    64    2.505928047865e-03
    65    4.655560868104e-15
    66   -2.243201616473e-04
    67   -1.299038963601e-04
    68   -2.683557848099e-04
    69    4.260183609734e-16
    70   -3.085692587964e-04
    71   -4.347105159659e-16
    72    3.992424491134e-04
    73   -1.542922328087e-04
    74    1.013305221349e-04
    75   -9.960704584008e-17
    76    3.032596824790e-04
    77    6.401185818550e-01
    78    1.175785487863e-02
    79   -6.150881388936e-03
    80    1.727971325063e-05
    81    9.347794100762e-15
    82    2.249369021970e-06
    83    2.406531397224e-03
    84    5.727160785100e-15
    85   -7.294456593792e-05
    86    2.352473188834e-04
    87   -3.293586173992e-04
    88    4.044438861900e-16
    89    3.143142573133e-04
    90   -3.231384475302e-16
    91   -5.210113697309e-04
    92    4.071475924935e-04
    93    1.871951285140e-04
    94   -1.706876282646e-16
    95   -3.771846408158e-04
Sym=X
Ene= 1.985784
Spin=Alpha
Occup=1
     1    1.224025372375e-01
     2   -2.518331568339e-01
     3   -2.134970823558e-01
     4    2.539204578377e-13
     5    2.337734130325e-15
     6    2.069267119902e-02
     7    7.742979683486e-14
     8    3.123726604704e-15
     9    3.269296060577e-02
    10   -3.785878849301e-03
    11   -2.490868830121e-14
    12    9.477554823967e-16
    13   -9.955356740290e-03
    14   -2.771849773326e-16
    15   -1.065922033357e-01
    16   -1.495693378065e-02
    17    6.875234292199e-15
    18   -5.789605894810e-16
    19    1.700903122183e-02
    20    9.274965341341e-02
    21   -1.853819545778e-01
    22   -7.265816086020e-02
    23    3.555098195222e-02
    24   -5.745336776162e-16
    25    3.454206008334e-03
    26   -2.479510763699e-02
    27    1.001920218845e-16
    28   -9.761227935192e-03
    29   -6.731935711203e-03
    30    5.752481667786e-03
    31    7.498670023789e-16
    32   -8.660951274763e-03
    33   -6.130948336323e-16
    34   -7.957992026484e-02
    35   -4.241312389299e-03
    36    1.028249759322e-02
    37    4.610615157910e-16
    38    3.953256105027e-03
    39    9.274965341422e-02
    40   -1.853819545789e-01
    41   -7.265816086098e-02
    42   -3.555098195203e-02
    43   -1.750979497365e-15
    44    3.454206008459e-03
    45    2.479510763693e-02
    46   -2.988530102354e-15
    47   -9.761227935091e-03
    48   -6.731935711250e-03
    49   -5.752481667778e-03
    50    7.556197026538e-16
    51   -8.660951274786e-03
    52   -3.884707883149e-16
    53   -7.957992026552e-02
    54   -4.241312389501e-03
    55   -1.028249759328e-02
    56   -8.519425673116e-17
    57    3.953256105067e-03
    58    8.277078937283e-02
    59   -1.647974731466e-01
    60   -1.129028747704e-01
    61   -1.986165053901e-02
    62   -4.534246110865e-15
    63   -3.300371362209e-02
    64   -3.696770648057e-03
    65   -2.287743456464e-15
    66   -1.183581820864e-02
    67   -4.229838940776e-03
    68    2.177742523037e-03
    69    8.306527471973e-16
    70   -7.276710852063e-03
    71   -2.552263337319e-16
    72   -6.488886152517e-02
    73   -1.064561768806e-02
    74   -5.259669420988e-03
    75    8.439121944033e-17
    76   -6.749254531173e-03
    77    8.277078937243e-02
    78   -1.647974731460e-01
    79   -1.129028747699e-01
    80    1.986165053937e-02
    81   -3.315336495109e-15
    82   -3.300371362186e-02
    83    3.696770648067e-03
    84   -2.933265414028e-15
    85   -1.183581820856e-02
    86   -4.229838940722e-03
    87   -2.177742522997e-03
    88    2.500065401021e-16
    89   -7.276710852065e-03
    90    1.275629802176e-16
    91   -6.488886152480e-02
    92   -1.064561768799e-02
    93    5.259669420974e-03
    94   -4.204751393909e-16
    95   -6.749254531131e-03
Sym=X
Ene= 1.980796
Spin=Alpha
Occup=1
     1   -1.219256164019e-01
     2    2.600102183354e-01
     3    2.014935067679e-01
     4   -6.304170392607e-13
     5    1.566290048149e-14
     6    7.490636969180e-02
     7   -3.378545413445e-13
     8    9.158789693635e-15
     9   -3.146968730042e-04
    10    9.308800031950e-04
    11    6.176339240671e-14
    12   -9.127372329465e-16
    13    5.483699403008e-03
    14    7.950029590970e-16
    15    1.764042390432e-01
    16    2.203365642949e-02
    17   -4.104799356864e-15
    18    7.404391900192e-16
    19   -2.573225705850e-02
    20   -9.961291038814e-03
    21    1.579272983720e-02
    22   -2.686888450640e-03
    23   -1.873394803568e-02
    24    2.187619798507e-14
    25    1.039233563839e-01
    26   -4.269657831165e-03
    27    1.239847994915e-14
    28    3.718361693822e-02
    29   -4.570582887680e-03
    30   -1.812265011826e-02
    31    4.915887326462e-16
    32    4.805501827333e-03
    33   -3.320273890242e-16
    34    2.771750589017e-02
    35    6.680316024997e-03
    36   -4.361566177851e-03
    37    4.728336693195e-16
    38   -1.008494121847e-04
    39   -9.961291039994e-03
    40    1.579272983971e-02
    41   -2.686888449159e-03
    42    1.873394803496e-02
    43    4.835357573622e-15
    44    1.039233563839e-01
    45    4.269657831022e-03
    46    1.162088257529e-15
    47    3.718361693808e-02
    48   -4.570582887597e-03
    49    1.812265011823e-02
    50   -7.249660112788e-16
    51    4.805501827382e-03
    52    2.236708632224e-15
    53    2.771750589213e-02
    54    6.680316025567e-03
    55    4.361566178029e-03
    56    4.802974080870e-16
    57   -1.008494122662e-04
    58    1.068738354874e-01
    59   -2.118311195516e-01
    60   -1.241505329341e-01
    61   -1.318366729880e-02
    62    8.725081516077e-15
    63    5.724669990227e-02
    64   -1.300269974912e-02
    65    1.815784922026e-15
    66    1.607478741865e-02
    67    3.439484598691e-03
    68    6.921077166014e-04
    69   -6.305567848714e-16
    70   -1.206211775559e-02
    71    2.022349981955e-17
    72   -1.515573288860e-01
    73   -3.926124609400e-02
    74   -1.051944665173e-02
    75   -3.719605095779e-16
    76   -1.216839438831e-02
    77    1.068738354881e-01
    78   -2.118311195528e-01
    79   -1.241505329348e-01
    80    1.318366729801e-02
    81    1.925906233365e-14
    82    5.724669990191e-02
    83    1.300269974893e-02
    84    1.543537022521e-14
    85    1.607478741840e-02
    86    3.439484598564e-03
    87   -6.921077166745e-04
    88    3.418073990372e-15
    89   -1.206211775557e-02
    90   -1.767419402030e-15
    91   -1.515573288868e-01
    92   -3.926124609425e-02
    93    1.051944665177e-02
    94    1.272917923015e-15
    95   -1.216839438840e-02
Sym=X
Ene= 1.979870
Spin=Alpha
Occup=1
     1   -9.407982529301e-13
     2    2.011913384376e-12
     3    1.680401544731e-12
     4    1.050491340769e-01
     5    1.346546505879e-14
     6    5.209087563115e-13
     7    5.288326821611e-02
     8    9.352338421646e-15
     9   -4.120398553746e-14
    10    2.444022035823e-14
    11   -1.069031770297e-02
    12   -2.445336691935e-16
    13    4.303675104094e-14
    14    4.141760844540e-16
    15    1.344259295510e-12
    16    1.998439599650e-13
    17    1.067900831199e-03
    18    4.577185828658e-16
    19   -1.901102190612e-13
    20   -1.135207736030e-01
    21    2.304156120874e-01
    22    1.407362197739e-01
    23    7.127192242386e-02
    24    5.600758653026e-15
    25   -6.042347710948e-03
    26    1.086641130423e-02
    27   -2.631047858363e-16
    28   -1.509798168530e-02
    29    9.010520856668e-03
    30    2.235846353285e-03
    31    1.230989102684e-15
    32    4.390052347315e-03
    33   -3.306846517395e-16
    34    1.810289758479e-01
    35    5.205606002046e-02
    36   -1.656750743415e-02
    37    5.360639511068e-16
    38   -7.569426309517e-03
    39    1.135207736028e-01
    40   -2.304156120868e-01
    41   -1.407362197739e-01
    42    7.127192242440e-02
    43    1.034688997027e-14
    44    6.042347711986e-03
    45    1.086641130417e-02
    46    9.175012719435e-15
    47    1.509798168571e-02
    48   -9.010520856669e-03
    49    2.235846353520e-03
    50   -3.533331453037e-16
    51   -4.390052347244e-03
    52    1.502667545440e-15
    53   -1.810289758477e-01
    54   -5.205606002051e-02
    55   -1.656750743408e-02
    56   -1.736400788193e-16
    57    7.569426309510e-03
    58    7.091273980232e-02
    59   -1.407942748479e-01
    60   -8.900384837188e-02
    61    9.067632800260e-02
    62    6.309350998033e-15
    63   -1.668031001915e-02
    64    2.193215059812e-02
    65   -3.538236169084e-16
    66   -1.418124482586e-02
    67   -1.215145685635e-02
    68    5.462291853992e-03
    69    2.276619248591e-16
    70    2.241480607301e-03
    71   -1.161622189658e-15
    72   -1.129477432142e-01
    73   -3.196329386693e-02
    74   -5.719056077551e-03
    75    5.424931706500e-16
    76   -1.028748150398e-02
    77   -7.091273980179e-02
    78    1.407942748466e-01
    79    8.900384837122e-02
    80    9.067632800259e-02
    81    4.372583206045e-15
    82    1.668031001961e-02
    83    2.193215059820e-02
    84    5.319086912639e-15
    85    1.418124482600e-02
    86    1.215145685639e-02
    87    5.462291853982e-03
    88   -6.532793814470e-17
    89   -2.241480607389e-03
    90   -1.307746497487e-15
    91    1.129477432132e-01
    92    3.196329386663e-02
    93   -5.719056077478e-03
    94   -1.917773819196e-15
    95    1.028748150390e-02
Sym=X
Ene= 1.971958
Spin=Alpha
Occup=1
     1    3.335862655441e-12
     2   -7.350049572487e-12
     3   -7.799443897249e-12
     4    8.252778380848e-02
     5   -1.472164592186e-14
     6   -4.964267478829e-12
     7    3.768576348699e-02
     8   -1.138209479519e-14
     9   -8.281252744671e-13
    10   -4.885036234532e-13
    11   -3.512820505950e-03
    12    9.970980050838e-17
    13    3.402784472417e-13
    14   -1.170757246330e-15
    15   -7.854692902355e-12
    16   -1.675265206063e-12
    17    1.972219390302e-04
    18   -5.147294117895e-16
    19    8.985133681584e-13
    20   -4.985221132229e-02
    21    1.064611129687e-01
    22    1.094001583656e-01
    23    8.093465104708e-02
    24   -6.619792923827e-15
    25    1.110598162002e-01
    26    9.138647007376e-03
    27   -1.802032223673e-15
    28    8.584499781429e-03
    29   -9.482268750339e-03
    30    3.102398506590e-03
    31   -1.189641120842e-16
    32    7.057983766275e-03
    33    1.811829897786e-15
    34    1.622697760952e-01
    35    5.982892360138e-02
    36   -1.147887578550e-02
    37   -2.484741942807e-15
    38   -3.718629726073e-03
    39    4.985221131574e-02
    40   -1.064611129541e-01
    41   -1.094001583523e-01
    42    8.093465103365e-02
    43   -2.553004963756e-15
    44   -1.110598161974e-01
    45    9.138647004920e-03
    46   -3.382976103772e-15
    47   -8.584499780740e-03