[Molden Format]
[Atoms] (Angs)
  N      1    7      0.00000000     -0.00000000      1.11738466
  H      2    1      0.00000000     -0.00000000      2.12136066
  C      3    6      1.12201016     -0.00000000      0.33463977
  H      4    1      2.10556415     -0.00000000      0.76898420
  C      5    6     -1.12201016      0.00000000      0.33463977
  H      6    1     -2.10556415      0.00000000      0.76898420
  C      7    6     -0.70797599     -0.00000000     -0.98428136
  H      8    1     -1.35674211      0.00000000     -1.84266130
  C      9    6      0.70797599      0.00000000     -0.98428136
  H     10    1      1.35674211      0.00000000     -1.84266130
[GTO]
1    0
S    7    1.000000
   9.04600000E+03    7.00000000E-04 
   1.35700000E+03    5.38983000E-03 
   3.09300000E+02    2.74060000E-02 
   8.77300000E+01    1.03262320E-01 
   2.85600000E+01    2.78905240E-01 
   1.02100000E+01    4.50217400E-01 
   3.83800000E+00    2.79943000E-01 
S    7    1.000000
   9.04600000E+03    5.00000000E-08 
   1.35700000E+03   -2.97600000E-05 
   8.77300000E+01   -1.97900000E-03 
   2.85600000E+01   -6.51949000E-03 
   1.02100000E+01   -6.00100000E-02 
   3.83800000E+00   -6.09975300E-02 
   7.46600000E-01    5.52378750E-01 
S    1    1.000000
   2.24800000E-01    1.00000000E+00 
P    3    1.000000
   1.35500000E+01    3.99190000E-02 
   2.91700000E+00    2.17169000E-01 
   7.97300000E-01    5.10319000E-01 
P    1    1.000000
   2.18500000E-01    1.00000000E+00 
D    1    1.000000
   8.17000000E-01    1.00000000E+00 

2    0
S    3    1.000000
   1.30100000E+01    1.96850000E-02 
   1.96200000E+00    1.37977000E-01 
   4.44600000E-01    4.78148000E-01 
S    1    1.000000
   1.22000000E-01    1.00000000E+00 
P    1    1.000000
   7.27000000E-01    1.00000000E+00 

3    0
S    7    1.000000
   6.66500000E+03    6.91990000E-04 
   1.00000000E+03    5.32976000E-03 
   2.28000000E+02    2.70770000E-02 
   6.47100000E+01    1.01768130E-01 
   2.10600000E+01    2.74902850E-01 
   7.49500000E+00    4.50094590E-01 
   2.79700000E+00    2.86933450E-01 
S    7    1.000000
   6.66500000E+03    3.10000000E-07 
   1.00000000E+03   -2.72700000E-05 
   6.47100000E+01   -1.80535000E-03 
   2.10600000E+01   -5.86561000E-03 
   7.49500000E+00   -5.51393100E-02 
   2.79700000E+00   -6.69876600E-02 
   5.21500000E-01    5.47743760E-01 
S    1    1.000000
   1.59600000E-01    1.00000000E+00 
P    3    1.000000
   9.43900000E+00    3.81090000E-02 
   2.00200000E+00    2.09480000E-01 
   5.45600000E-01    5.08557000E-01 
P    1    1.000000
   1.51700000E-01    1.00000000E+00 
D    1    1.000000
   5.50000000E-01    1.00000000E+00 

4    0
S    3    1.000000
   1.30100000E+01    1.96850000E-02 
   1.96200000E+00    1.37977000E-01 
   4.44600000E-01    4.78148000E-01 
S    1    1.000000
   1.22000000E-01    1.00000000E+00 
P    1    1.000000
   7.27000000E-01    1.00000000E+00 

5    0
S    7    1.000000
   6.66500000E+03    6.91990000E-04 
   1.00000000E+03    5.32976000E-03 
   2.28000000E+02    2.70770000E-02 
   6.47100000E+01    1.01768130E-01 
   2.10600000E+01    2.74902850E-01 
   7.49500000E+00    4.50094590E-01 
   2.79700000E+00    2.86933450E-01 
S    7    1.000000
   6.66500000E+03    3.10000000E-07 
   1.00000000E+03   -2.72700000E-05 
   6.47100000E+01   -1.80535000E-03 
   2.10600000E+01   -5.86561000E-03 
   7.49500000E+00   -5.51393100E-02 
   2.79700000E+00   -6.69876600E-02 
   5.21500000E-01    5.47743760E-01 
S    1    1.000000
   1.59600000E-01    1.00000000E+00 
P    3    1.000000
   9.43900000E+00    3.81090000E-02 
   2.00200000E+00    2.09480000E-01 
   5.45600000E-01    5.08557000E-01 
P    1    1.000000
   1.51700000E-01    1.00000000E+00 
D    1    1.000000
   5.50000000E-01    1.00000000E+00 

6    0
S    3    1.000000
   1.30100000E+01    1.96850000E-02 
   1.96200000E+00    1.37977000E-01 
   4.44600000E-01    4.78148000E-01 
S    1    1.000000
   1.22000000E-01    1.00000000E+00 
P    1    1.000000
   7.27000000E-01    1.00000000E+00 

7    0
S    7    1.000000
   6.66500000E+03    6.91990000E-04 
   1.00000000E+03    5.32976000E-03 
   2.28000000E+02    2.70770000E-02 
   6.47100000E+01    1.01768130E-01 
   2.10600000E+01    2.74902850E-01 
   7.49500000E+00    4.50094590E-01 
   2.79700000E+00    2.86933450E-01 
S    7    1.000000
   6.66500000E+03    3.10000000E-07 
   1.00000000E+03   -2.72700000E-05 
   6.47100000E+01   -1.80535000E-03 
   2.10600000E+01   -5.86561000E-03 
   7.49500000E+00   -5.51393100E-02 
   2.79700000E+00   -6.69876600E-02 
   5.21500000E-01    5.47743760E-01 
S    1    1.000000
   1.59600000E-01    1.00000000E+00 
P    3    1.000000
   9.43900000E+00    3.81090000E-02 
   2.00200000E+00    2.09480000E-01 
   5.45600000E-01    5.08557000E-01 
P    1    1.000000
   1.51700000E-01    1.00000000E+00 
D    1    1.000000
   5.50000000E-01    1.00000000E+00 

8    0
S    3    1.000000
   1.30100000E+01    1.96850000E-02 
   1.96200000E+00    1.37977000E-01 
   4.44600000E-01    4.78148000E-01 
S    1    1.000000
   1.22000000E-01    1.00000000E+00 
P    1    1.000000
   7.27000000E-01    1.00000000E+00 

9    0
S    7    1.000000
   6.66500000E+03    6.91990000E-04 
   1.00000000E+03    5.32976000E-03 
   2.28000000E+02    2.70770000E-02 
   6.47100000E+01    1.01768130E-01 
   2.10600000E+01    2.74902850E-01 
   7.49500000E+00    4.50094590E-01 
   2.79700000E+00    2.86933450E-01 
S    7    1.000000
   6.66500000E+03    3.10000000E-07 
   1.00000000E+03   -2.72700000E-05 
   6.47100000E+01   -1.80535000E-03 
   2.10600000E+01   -5.86561000E-03 
   7.49500000E+00   -5.51393100E-02 
   2.79700000E+00   -6.69876600E-02 
   5.21500000E-01    5.47743760E-01 
S    1    1.000000
   1.59600000E-01    1.00000000E+00 
P    3    1.000000
   9.43900000E+00    3.81090000E-02 
   2.00200000E+00    2.09480000E-01 
   5.45600000E-01    5.08557000E-01 
P    1    1.000000
   1.51700000E-01    1.00000000E+00 
D    1    1.000000
   5.50000000E-01    1.00000000E+00 

10    0
S    3    1.000000
   1.30100000E+01    1.96850000E-02 
   1.96200000E+00    1.37977000E-01 
   4.44600000E-01    4.78148000E-01 
S    1    1.000000
   1.22000000E-01    1.00000000E+00 
P    1    1.000000
   7.27000000E-01    1.00000000E+00 

[MO]
Sym=X
Ene= 2.000000
Spin=Alpha
Occup=1
     1    7.117988439983e-01
     2    1.303551037464e-02
     3   -9.053136195848e-03
     4    7.060494690475e-05
     5    2.530393138262e-14
     6   -1.082615706711e-04
     7   -4.294833657202e-04
     8    1.750363578889e-14
     9    3.664329431540e-03
    10    8.067288265331e-05
    11    1.163108549966e-04
    12    5.196544489757e-16
    13   -2.646172769027e-04
    14   -3.127573143587e-16
    15   -5.723692500195e-04
    16   -3.242100308867e-04
    17    5.984286758811e-05
    18    3.249439681671e-16
    19    3.685879810589e-04
    20    5.675385375643e-01
    21    1.023651634927e-02
    22    2.526581716261e-04
    23   -4.708824041837e-04
    24    1.404600344435e-14
    25    6.471709954181e-04
    26   -2.759802394401e-03
    27    6.678518003515e-15
    28    2.504393698224e-04
    29   -6.339241711983e-06
    30    4.082731355099e-04
    31    1.362915921911e-15
    32    6.006334192042e-04
    33   -2.227132865833e-15
    34   -4.825017969180e-04
    35    1.460016571434e-03
    36    5.141337841587e-04
    37    6.969499243907e-16
    38    2.050499015489e-05
    39    1.316869243651e-01
    40    2.222414881657e-03
    41    4.774984266367e-03
    42    2.157238749264e-04
    43    1.117429667565e-14
    44    2.923488214342e-04
    45    3.658015849707e-03
    46    8.670083035124e-15
    47   -1.458637883087e-03
    48   -6.094511614122e-05
    49   -6.774362241243e-05
    50    1.472647408452e-15
    51    1.015156381879e-04
    52    1.780721157173e-15
    53    5.438175554537e-05
    54    1.406735486650e-03
    55   -1.380453308512e-04
    56    7.023979801494e-16
    57   -1.307043261427e-05
    58    3.855123404505e-01
    59    7.116979089589e-03
    60   -5.421818312779e-03
    61    1.115296886985e-04
    62    6.146787409807e-15
    63   -1.039350383876e-04
    64   -7.703283826667e-04
    65    3.064202730033e-15
    66   -2.092261754647e-03
    67    1.426223076170e-04
    68    3.253865007436e-04
    69    1.999255301837e-15
    70    2.375818558408e-04
    71   -1.894938652436e-15
    72   -4.589140830481e-04
    73   -4.153124255677e-05
    74   -1.742904606636e-04
    75   -4.762306138131e-16
    76   -1.850585250675e-04
    77    2.900462458171e-03
    78   -2.073811583724e-04
    79    4.567563936036e-04
    80   -1.057115096664e-04
    81    9.580800060317e-15
    82   -1.489933065946e-04
    83    4.258978400045e-04
    84    5.262258309992e-15
    85   -2.341488147090e-04
    86   -2.155446716187e-04
    87    2.950201494101e-04
    88    1.044291525564e-15
    89   -1.946178970179e-04
    90   -2.594497982237e-15
    91    1.247723979542e-04
    92   -7.470681531461e-05
    93   -1.172972027593e-04
    94   -4.678832212461e-17
    95    1.860897274668e-04
Sym=X
Ene= 2.000000
Spin=Alpha
Occup=1
     1    5.247945557544e-01
     2    9.166066233258e-03
     3   -4.380920261695e-03
     4   -1.203479076758e-04
     5   -5.215701923706e-15
     6    3.240455356876e-05
     7    6.569272579495e-04
     8   -4.114607564245e-15
     9    1.116538354967e-03
    10    1.406521592727e-04
    11   -2.081991490348e-04
    12    4.303251608984e-16
    13   -1.128852845758e-05
    14    5.900683079895e-17
    15   -2.476598831964e-04
    16    1.584826289847e-05
    17   -8.899854364507e-05
    18   -3.119229610484e-16
    19    3.475041613254e-04
    20   -3.407041475307e-01
    21   -6.204478333520e-03
    22    5.023659447377e-03
    23    1.662426893488e-04
    24   -3.357423291820e-15
    25   -2.429133952147e-04
    26   -1.811290537279e-03
    27   -2.139408046816e-15
    28   -1.214986715161e-03
    29   -8.879161172392e-06
    30   -1.372459698181e-04
    31    5.201306815347e-16
    32   -4.437968752130e-04
    33    1.598923739395e-16
    34    4.031617789334e-04
    35    2.003481924284e-04
    36   -2.259294075563e-04
    37   -6.045066983045e-16
    38   -8.795668558284e-05
    39    4.105831042925e-01
    40    7.667262914137e-03
    41   -3.435825532464e-03
    42    2.894460536924e-04
    43   -2.299210151317e-15
    44    3.697711526888e-04
    45   -1.168747723345e-05
    46   -1.340879581390e-15
    47    1.893185540129e-03
    48    9.022759007102e-05
    49   -5.398301010202e-04
    50    3.887445566307e-16
    51    5.068002050809e-04
    52   -6.545338393955e-16
    53   -5.875636102861e-04
    54    2.173776283026e-04
    55   -4.653089112329e-04
    56   -4.196903691266e-16
    57   -1.515976981984e-05
    58   -6.099591638943e-01
    59   -1.149157600177e-02
    60    7.312709015405e-03
    61    4.794594914573e-05
    62   -9.360283197921e-16
    63   -1.059181567771e-04
    64    2.925122817304e-04
    65    7.988685087105e-16
    66    1.711993372103e-03
    67   -4.551173536361e-04
    68   -6.621351330168e-04
    69    7.928009747378e-16
    70   -4.262592626096e-04
    71   -1.035826536587e-15
    72    6.556200233562e-04
    73   -3.867440814605e-04
    74    3.659922539018e-04
    75   -2.983912753943e-16
    76    4.567491474475e-04
    77    2.511676925510e-01
    78    4.907031154340e-03
    79   -5.301494896914e-03
    80   -5.751397642645e-05
    81   -1.774230056076e-15
    82   -1.821039923851e-05
    83    9.138556889672e-04
    84   -3.139578008783e-15
    85   -1.892145437066e-03
    86    2.825742935631e-04
    87   -6.118828604681e-04
    88   -3.839662285537e-16
    89    4.837698569769e-04
    90    2.110408266524e-16
    91   -5.819883832433e-04
    92   -2.609292113337e-04
    93    2.336174861205e-04
    94   -4.646641345563e-16
    95   -3.405893033433e-04
Sym=X
Ene= 2.000000
Spin=Alpha
Occup=1
     1    4.110788516703e-01
     2    6.390281314290e-03
     3    1.522359038659e-04
     4    1.429965794260e-05
     5    5.183499660314e-15
     6    1.757826703178e-04
     7   -5.988072114388e-05
     8    3.853853153945e-15
     9   -1.539728463014e-03
    10    5.912655112700e-04
    11    2.714350391912e-05
    12    1.073247307072e-15
    13    4.144471751748e-04
    14   -1.352363728715e-15
    15   -1.406139616704e-04
    16    3.887682324346e-04
    17    7.428967900405e-06
    18   -8.981282188641e-16
    19    5.947713027615e-04
    20   -5.568651181888e-01
    21   -9.966989683137e-03
    22    2.340367946653e-03
    23    3.420546150945e-04
    24    3.337270918622e-15
    25   -4.673235935086e-04
    26    1.073907521329e-03
    27    2.807852917962e-15
    28    3.524348254529e-04
    29    5.799907579578e-05
    30   -1.304612382625e-04
    31    1.404869215583e-15
    32   -7.728086621073e-04
    33   -1.705370319354e-15
    34    3.768023699096e-04
    35   -1.141874944859e-03
    36   -4.042588814597e-04
    37    8.381499428911e-16
    38   -1.935903085837e-04
    39   -6.481564929630e-01
    40   -1.166638083921e-02
    41    3.527191953827e-03
    42   -4.012219493684e-04
    43    2.232182633404e-15
    44   -5.420287334397e-04
    45   -7.866832631147e-04
    46    2.227387526101e-15
    47   -6.404592331927e-05
    48    4.476477664175e-05
    49    2.342857614324e-04
    50    2.352847758785e-16
    51   -9.099076117675e-04
    52   -3.666711453507e-16
    53    5.128049189281e-04
    54   -1.126049602417e-03
    55    4.985307499431e-04
    56   -3.387894057842e-17
    57   -2.060053965409e-04
    58    2.815651748535e-01
    59    5.229641106102e-03
    60   -2.372474326190e-03
    61   -7.358093661654e-05
    62    2.562053669908e-15
    63   -1.570447065974e-05
    64    1.535850328997e-04
    65   -3.086934042929e-16
    66   -4.291530851262e-04
    67    4.056780702621e-04
    68    3.528346356411e-04
    69   -7.396349302574e-17
    70    2.104578242740e-04
    71    4.389396280482e-16
    72   -4.062302388895e-04
    73    2.276393622616e-04
    74   -2.388639827684e-04
    75    7.717391976836e-16
    76   -2.742808341138e-04
    77    1.287029631783e-01
    78    2.334409163910e-03
    79   -2.462004374947e-04
    80    7.463333483279e-05
    81    2.797922076649e-15
    82   -2.876358523859e-05
    83   -4.467204079102e-04
    84    1.225113328496e-15
    85    1.047783037389e-04
    86    2.872610773511e-04
    87   -1.490833451097e-04
    88    1.976418402507e-15
    89    6.040148176191e-05
    90   -2.384270096645e-16
    91   -2.004722843677e-04
    92    1.959354708001e-04
    93    1.428032062544e-04
    94    1.822113688373e-15
    95   -1.397010498802e-04
Sym=X
Ene= 2.000000
Spin=Alpha
Occup=1
     1    1.697910936557e-01
     2    2.614946157875e-03
     3    5.188418531050e-04
     4    1.371652130669e-04
     5   -2.734893926817e-15
     6    1.117435684865e-04
     7   -1.123031540194e-03
     8   -1.248593894918e-15
     9   -9.930842147552e-04
    10    2.130507492417e-05
    11    1.877539945536e-04
    12    3.865764369609e-16
    13    1.158834599866e-04
    14   -3.737723599569e-16
    15    1.243564612958e-04
    16    2.260078037200e-04
    17    1.662212463978e-04
    18   -8.638629746154e-16
    19    1.229268154242e-04
    20    3.042469082585e-01
    21    5.757256875434e-03
    22   -4.625884958385e-03
    23   -9.781920281636e-05
    24   -1.148475969581e-15
    25    1.406232384631e-04
    26    1.429663537214e-03
    27   -4.406693379954e-16
    28    2.410045045100e-03
    29    1.315580616327e-04
    30    3.316214284952e-04
    31    9.998122646442e-17
    32    2.450312179406e-04
    33    6.496052130606e-16
    34   -4.592214249101e-04
    35   -4.618325992886e-04
    36    2.990383772727e-04
    37   -8.576040529206e-18
    38   -4.028686944571e-05
    39   -5.103425504098e-01
    40   -8.999285218742e-03
    41    1.274221029017e-03
    42   -3.181064239562e-04
    43   -1.316483856117e-15
    44   -5.184162871136e-04
    45   -8.063203199322e-04
    46   -2.149658261182e-15
    47   -1.610163203039e-04
    48    4.863950045557e-05
    49   -4.132639341649e-05
    50   -2.638348281830e-16
    51   -3.410488033724e-04
    52    7.675220051534e-17
    53    2.933698770055e-04
    54   -8.488302867810e-04
    55    2.387867698383e-04
    56   -5.262533368392e-17
    57   -4.570923772593e-05
    58   -5.824616138558e-01
    59   -1.045127531963e-02
    60    3.700563460751e-03
    61    1.931330155955e-05
    62   -1.309341254695e-15
    63    3.489988979449e-05
    64    7.755315871605e-04
    65    7.506672051514e-16
    66   -8.955069876272e-06
    67   -1.071099238656e-04
    68    6.224261337739e-05
    69    9.694150863140e-17
    70    8.279793737385e-05
    71   -7.135401140998e-16
    72    1.985802016351e-04
    73   -6.795246007261e-04
    74    1.080300635049e-04
    75   -9.461004418343e-16
    76    1.130487966851e-04
    77   -5.229934584076e-01
    78   -9.643239719035e-03
    79    5.155111661677e-03
    80   -6.668652444840e-06
    81   -2.388034211100e-16
    82   -1.074087282530e-05
    83    9.345056234367e-04
    84   -5.707101257210e-16
    85    1.922177056224e-03
    86   -3.142932226788e-04
    87    3.111968627671e-04
    88    3.572069829812e-16
    89   -9.092126430890e-05
    90   -2.353291528780e-16
    91    4.001001006056e-04
    92   -4.778650502040e-04
    93   -2.803619780123e-04
    94    5.303923664765e-16
    95    2.013054133778e-04
Sym=X
Ene= 2.000000
Spin=Alpha
Occup=1
     1    1.222966029278e-01
     2    2.009766347706e-03
     3   -2.903427782077e-04
     4   -1.330070579393e-04
     5   -2.743095041140e-15
     6    4.734590671855e-05
     7    1.441171398387e-03
     8   -2.719079723610e-15
     9   -2.547794724586e-04
    10    1.097093780193e-06
    11   -1.354512578846e-04
    12   -4.464148173818e-17
    13    3.380944118718e-05
    14   -3.447622680119e-16
    15    3.338091425490e-05
    16    8.842781852713e-05
    17   -2.221395439826e-04
    18    8.348318544956e-17
    19    7.194388978583e-05
    20   -3.924109464219e-01
    21   -6.848476494728e-03
    22    3.036949640715e-04
    23    1.800377401135e-04
    24   -1.925707417530e-15
    25   -3.581464048803e-04
    26    7.457047369076e-04
    27   -8.977296328775e-16
    28   -2.418746398782e-04
    29    1.770673518299e-05
    30    2.026311334887e-04
    31   -2.390289828066e-16
    32   -3.228186065974e-05
    33   -2.240007471742e-17
    34    1.198250934207e-04
    35   -5.863930854866e-04
    36   -9.580513326103e-05
    37    2.899683177239e-16
    38    1.665476005401e-05
    39    3.582656974498e-01
    40    6.469367349423e-03
    41   -1.897171751744e-03
    42    1.259518023378e-04
    43   -1.012308836928e-15
    44    2.439736975940e-04
    45    1.827145745618e-05
    46    7.028595844399e-16
    47    1.337213245424e-03
    48    6.984954482296e-05
    49   -3.118119708051e-05
    50   -7.171293589573e-16
    51    6.807197894596e-05
    52    1.652611698440e-16
    53   -2.556299257000e-04
    54    1.347369721298e-04
    55   -1.904850039897e-04
    56    5.329315216213e-17
    57   -5.105135622228e-05
    58    2.359974757596e-01
    59    4.422789321775e-03
    60   -3.176313596618e-03
    61    8.429183262033e-06
    62   -1.311811297389e-15
    63    2.519993905734e-06
    64   -2.366528299766e-03
    65   -1.527423007063e-15
    66    3.454036513239e-04
    67    7.628854076570e-05
    68    2.557788328049e-04
    69   -3.613256251397e-16
    70    3.177526047034e-04
    71    5.583202596494e-16
    72   -3.169974370406e-04
    73   -5.174906099119e-05
    74   -5.214201921532e-05
    75   -3.334066593851e-17
    76   -2.556555183747e-04
    77   -8.010774003784e-01
    78   -1.470658279616e-02
    79    7.571877834321e-03
    80   -2.232729561702e-05
    81   -2.630379908551e-15
    82   -4.335549051165e-06
    83   -2.194329505189e-03
    84   -1.212278177850e-15
    85    5.208201721438e-04
    86   -3.189564373294e-04
    87    3.969656016592e-04
    88   -1.268556724300e-16
    89   -3.262397792378e-04
    90    1.246681496903e-16
    91    6.251690749851e-04
    92   -5.719582848985e-04
    93   -2.616131181931e-04
    94    5.859270664047e-16
    95    4.307731176004e-04
Sym=X
Ene= 1.985076
Spin=Alpha
Occup=1
     1    1.279424838401e-01
     2   -2.639951399194e-01
     3   -2.229136180191e-01
     4    2.436953118644e-13
     5   -9.559072941017e-16
     6    1.782290283455e-02
     7    6.557390891218e-14
     8    3.713751284449e-17
     9    3.463930533228e-02
    10   -4.206372952480e-03
    11   -2.341939031856e-14
    12    9.284605569498e-16
    13   -1.037113262049e-02
    14   -3.351122630061e-16
    15   -1.144082889206e-01
    16   -1.663413072941e-02
    17    6.449316327491e-15
    18   -6.173326497674e-16
    19    1.804731254958e-02
    20    9.459924819828e-02
    21   -1.881599197891e-01
    22   -7.427345526471e-02
    23    3.482385129830e-02
    24   -6.824273082928e-16
    25    1.345956446404e-03
    26   -2.534582674637e-02
    27    9.569570671902e-16
    28   -1.054706428263e-02
    29   -6.545097294059e-03
    30    6.439477792814e-03
    31    3.446928300714e-16
    32   -9.149220094903e-03
    33   -7.027859280037e-16
    34   -8.239858926208e-02
    35   -5.106231593984e-03
    36    1.048044210013e-02
    37    3.637778713015e-16
    38    4.030941860062e-03
    39    9.459924819905e-02
    40   -1.881599197901e-01
    41   -7.427345526549e-02
    42   -3.482385129811e-02
    43   -9.970729607281e-16
    44    1.345956446516e-03
    45    2.534582674632e-02
    46   -1.832174416879e-15
    47   -1.054706428255e-02
    48   -6.545097294103e-03
    49   -6.439477792806e-03
    50    6.330147812997e-16
    51   -9.149220094927e-03
    52   -4.159401549948e-16
    53   -8.239858926274e-02
    54   -5.106231594176e-03
    55   -1.048044210019e-02
    56   -1.770269493500e-17
    57    4.030941860099e-03
    58    7.586617009245e-02
    59   -1.522383024237e-01
    60   -1.034889723812e-01
    61   -1.235275061082e-02
    62   -7.239320003659e-16
    63   -4.133894051994e-02
    64   -4.947326290863e-04
    65    4.412332150240e-16
    66   -1.441000224299e-02
    67   -5.248384546550e-03
    68    1.957184461144e-03
    69    8.779992267456e-16
    70   -6.877587382263e-03
    71   -1.538019574130e-16
    72   -5.557647294443e-02
    73   -8.526164194249e-03
    74   -4.352439050485e-03
    75   -9.367611590130e-17
    76   -5.969725206314e-03
    77    7.586617009208e-02
    78   -1.522383024232e-01
    79   -1.034889723808e-01
    80    1.235275061115e-02
    81    1.409862564980e-16
    82   -4.133894051970e-02
    83    4.947326291009e-04
    84   -1.390719293769e-15
    85   -1.441000224292e-02
    86   -5.248384546498e-03
    87   -1.957184461103e-03
    88   -4.022870146552e-17
    89   -6.877587382263e-03
    90    2.399083363204e-16
    91   -5.557647294410e-02
    92   -8.526164194199e-03
    93    4.352439050474e-03
    94   -4.738734032476e-16
    95   -5.969725206275e-03
Sym=X
Ene= 1.979410
Spin=Alpha
Occup=1
     1   -1.121345530924e-01
     2    2.408081431727e-01
     3    1.799237604143e-01
     4   -8.383081002654e-13
     5    8.795868477808e-15
     6    8.468828613306e-02
     7   -4.533585785127e-13
     8    5.908224820806e-15
     9    6.494730614524e-03
    10    1.029893245398e-03
    11    8.404223116637e-14
    12   -4.007641379774e-16
    13    5.029831044024e-03
    14    2.145223567711e-16
    15    1.742125649957e-01
    16    2.290179686124e-02
    17   -5.093621119619e-15
    18    4.699024999995e-16
    19   -2.489881709564e-02
    20   -5.380959915464e-03
    21    6.408493091087e-03
    22   -4.263432076828e-03
    23   -1.090561796805e-02
    24    5.405861916615e-15
    25    1.008760024357e-01
    26   -4.260154001167e-03
    27    1.182507182617e-15
    28    3.544110741257e-02
    29   -5.065555169457e-03
    30   -1.675169157899e-02
    31    1.315599250480e-15
    32    3.879246732788e-03
    33    3.716865202479e-16
    34    2.782110330032e-02
    35    8.675369771944e-03
    36   -3.991116422594e-03
    37   -9.756206832255e-17
    38   -6.550762545628e-05
    39   -5.380959917138e-03
    40    6.408493094594e-03
    41   -4.263432074737e-03
    42    1.090561796691e-02
    43    3.921781629389e-15
    44    1.008760024358e-01
    45    4.260154000874e-03
    46    2.904577110882e-15
    47    3.544110741239e-02
    48   -5.065555169339e-03
    49    1.675169157895e-02
    50   -3.313061011701e-16
    51    3.879246732857e-03
    52    1.723317038328e-15
    53    2.782110330317e-02
    54    8.675369772752e-03
    55    3.991116422847e-03
    56    4.138578302809e-16
    57   -6.550762557221e-05
    58    1.104259577220e-01
    59   -2.210200112092e-01
    60   -1.283345701130e-01
    61   -4.978415901969e-03
    62    2.307164530598e-15
    63    6.030040854568e-02
    64   -9.007848208118e-03
    65   -9.047032407935e-16
    66    1.763720504331e-02
    67    2.714296871281e-03
    68    4.903897804860e-04
    69   -6.775097580968e-16
    70   -1.259651815092e-02
    71   -1.107850643558e-15
    72   -1.614069344793e-01
    73   -4.188492189624e-02
    74   -1.083184528489e-02
    75   -7.791784361698e-16
    76   -1.283002901102e-02
    77    1.104259577230e-01
    78   -2.210200112111e-01
    79   -1.283345701141e-01
    80    4.978415900792e-03
    81    3.730195023567e-15
    82    6.030040854528e-02
    83    9.007848207865e-03
    84    5.614601335252e-15
    85    1.763720504300e-02
    86    2.714296871098e-03
    87   -4.903897805838e-04
    88    2.523845037882e-15
    89   -1.259651815089e-02
    90   -1.547882147211e-15
    91   -1.614069344806e-01
    92   -4.188492189663e-02
    93    1.083184528495e-02
    94    2.799239790086e-16
    95   -1.283002901115e-02
Sym=X
Ene= 1.978945
Spin=Alpha
Occup=1
     1   -1.148601860514e-12
     2    2.451074552211e-12
     3    1.968902756425e-12
     4    1.030841092459e-01
     5    3.274650132211e-16
     6    7.549914964793e-13
     7    5.159071804159e-02
     8    6.801964240653e-16
     9   -4.388524793790e-15
    10    2.800571253544e-14
    11   -1.056850144175e-02
    12    1.769485754533e-16
    13    5.165156501727e-14
    14    6.289255578693e-16
    15    1.718926247630e-12
    16    2.653734326867e-13
    17    9.977917986478e-04
    18   -2.469078767291e-16
    19   -2.411232750209e-13
    20   -1.133727813511e-01
    21    2.290707193342e-01
    22    1.414762944777e-01
    23    7.478904518936e-02
    24    3.206683045586e-16
    25   -4.307185582253e-03
    26    1.285743297322e-02
    27   -2.723514214543e-15
    28   -1.431833519678e-02
    29    8.877436555119e-03
    30    2.281248137215e-03
    31    1.058751235343e-15
    32    4.519208932342e-03
    33    4.928262998286e-16
    34    1.843300842879e-01
    35    5.456585169024e-02
    36   -1.650234832898e-02
    37    6.066890538712e-16
    38   -7.592203082958e-03
    39    1.133727813509e-01
    40   -2.290707193337e-01
    41   -1.414762944777e-01
    42    7.478904518987e-02
    43    2.490625906427e-16
    44    4.307185583704e-03
    45    1.285743297317e-02
    46    3.500783943916e-15
    47    1.431833519734e-02
    48   -8.877436555151e-03
    49    2.281248137511e-03
    50   -6.575068085523e-16
    51   -4.519208932261e-03
    52    6.162782059678e-16
    53   -1.843300842876e-01
    54   -5.456585169024e-02
    55   -1.650234832890e-02
    56   -7.811102206584e-16
    57    7.592203082951e-03
    58    6.990865797428e-02
    59   -1.401174640224e-01
    60   -8.610336735869e-02
    61    9.010516443328e-02
    62   -5.623841174465e-16
    63   -1.683690252833e-02
    64    2.165336588529e-02
    65   -4.875309002808e-15
    66   -1.280855408137e-02
    67   -1.232340677945e-02
    68    5.753057141243e-03
    69   -3.910230165145e-16
    70    1.979381850540e-03
    71   -1.387521540345e-15
    72   -1.105721883006e-01
    73   -3.044627433573e-02
    74   -5.546969651535e-03
    75    8.181489892612e-16
    76   -1.015151938166e-02
    77   -6.990865797316e-02
    78    1.401174640199e-01
    79    8.610336735739e-02
    80    9.010516443327e-02
    81    9.777453597251e-16
    82    1.683690252916e-02
    83    2.165336588541e-02
    84    4.687661427966e-15
    85    1.280855408162e-02
    86    1.232340677950e-02
    87    5.753057141232e-03
    88   -3.267417148605e-16
    89   -1.979381850696e-03
    90   -1.272461059491e-15
    91    1.105721882986e-01
    92    3.044627433516e-02
    93   -5.546969651404e-03
    94   -2.272036135448e-15
    95    1.015151938151e-02
Sym=X
Ene= 1.971225
Spin=Alpha
Occup=1
     1   -8.648171430939e-02
     2    1.925681696543e-01
     3    2.027812689852e-01
     4   -1.059521938716e-12
     5   -4.010601589366e-15
     6    1.363660034139e-01
     7   -4.897040397539e-13
     8   -3.579451351028e-15
     9    2.342576287386e-02
    10    1.164866237633e-02
    11    5.233787707340e-14
    12   -3.245783693448e-16
    13   -8.396221986626e-03
    14    7.028179537023e-16
    15    2.076742415422e-01
    16    4.350715219335e-02
    17   -6.092034593907e-15
    18   -2.224519341712e-17
    19   -2.398037105338e-02
    20    7.975302647894e-02
    21   -1.748917999090e-01
    22   -1.654288891760e-01
    23   -1.544662027327e-01
    24    2.193909413167e-16
    25   -2.749477736283e-02
    26   -2.726704548895e-02
    27   -2.205538987569e-15
    28   -6.273064150713e-03
    29    6.268002515316e-03
    30   -1.608606514645e-02
    31    4.037295859983e-16
    32   -3.323626082777e-03
    33    1.054460658257e-15
    34   -2.278319911964e-01
    35   -7.448017084170e-02
    36    1.603271374658e-02
    37    1.688114174028e-16
    38    6.786043746280e-03
    39    7.975302647768e-02
    40   -1.748917999062e-01
    41   -1.654288891732e-01
    42    1.544662027308e-01
    43   -1.513627513614e-15
    44   -2.749477736034e-02
    45    2.726704548877e-02
    46   -2.091227885897e-15
    47   -6.273064150619e-03