[Molden Format]
[Atoms] (Angs)
  N      1    7      0.00000000     -0.00000000      1.11738466
  H      2    1      0.00000000     -0.00000000      2.12136066
  C      3    6      1.12201016     -0.00000000      0.33463977
  H      4    1      2.10556415     -0.00000000      0.76898420
  C      5    6     -1.12201016      0.00000000      0.33463977
  H      6    1     -2.10556415      0.00000000      0.76898420
  C      7    6     -0.70797599     -0.00000000     -0.98428136
  H      8    1     -1.35674211      0.00000000     -1.84266130
  C      9    6      0.70797599      0.00000000     -0.98428136
  H     10    1      1.35674211      0.00000000     -1.84266130
[GTO]
1    0
S    7    1.000000
   9.04600000E+03    7.00000000E-04 
   1.35700000E+03    5.38983000E-03 
   3.09300000E+02    2.74060000E-02 
   8.77300000E+01    1.03262320E-01 
   2.85600000E+01    2.78905240E-01 
   1.02100000E+01    4.50217400E-01 
   3.83800000E+00    2.79943000E-01 
S    7    1.000000
   9.04600000E+03    5.00000000E-08 
   1.35700000E+03   -2.97600000E-05 
   8.77300000E+01   -1.97900000E-03 
   2.85600000E+01   -6.51949000E-03 
   1.02100000E+01   -6.00100000E-02 
   3.83800000E+00   -6.09975300E-02 
   7.46600000E-01    5.52378750E-01 
S    1    1.000000
   2.24800000E-01    1.00000000E+00 
P    3    1.000000
   1.35500000E+01    3.99190000E-02 
   2.91700000E+00    2.17169000E-01 
   7.97300000E-01    5.10319000E-01 
P    1    1.000000
   2.18500000E-01    1.00000000E+00 
D    1    1.000000
   8.17000000E-01    1.00000000E+00 

2    0
S    3    1.000000
   1.30100000E+01    1.96850000E-02 
   1.96200000E+00    1.37977000E-01 
   4.44600000E-01    4.78148000E-01 
S    1    1.000000
   1.22000000E-01    1.00000000E+00 
P    1    1.000000
   7.27000000E-01    1.00000000E+00 

3    0
S    7    1.000000
   6.66500000E+03    6.91990000E-04 
   1.00000000E+03    5.32976000E-03 
   2.28000000E+02    2.70770000E-02 
   6.47100000E+01    1.01768130E-01 
   2.10600000E+01    2.74902850E-01 
   7.49500000E+00    4.50094590E-01 
   2.79700000E+00    2.86933450E-01 
S    7    1.000000
   6.66500000E+03    3.10000000E-07 
   1.00000000E+03   -2.72700000E-05 
   6.47100000E+01   -1.80535000E-03 
   2.10600000E+01   -5.86561000E-03 
   7.49500000E+00   -5.51393100E-02 
   2.79700000E+00   -6.69876600E-02 
   5.21500000E-01    5.47743760E-01 
S    1    1.000000
   1.59600000E-01    1.00000000E+00 
P    3    1.000000
   9.43900000E+00    3.81090000E-02 
   2.00200000E+00    2.09480000E-01 
   5.45600000E-01    5.08557000E-01 
P    1    1.000000
   1.51700000E-01    1.00000000E+00 
D    1    1.000000
   5.50000000E-01    1.00000000E+00 

4    0
S    3    1.000000
   1.30100000E+01    1.96850000E-02 
   1.96200000E+00    1.37977000E-01 
   4.44600000E-01    4.78148000E-01 
S    1    1.000000
   1.22000000E-01    1.00000000E+00 
P    1    1.000000
   7.27000000E-01    1.00000000E+00 

5    0
S    7    1.000000
   6.66500000E+03    6.91990000E-04 
   1.00000000E+03    5.32976000E-03 
   2.28000000E+02    2.70770000E-02 
   6.47100000E+01    1.01768130E-01 
   2.10600000E+01    2.74902850E-01 
   7.49500000E+00    4.50094590E-01 
   2.79700000E+00    2.86933450E-01 
S    7    1.000000
   6.66500000E+03    3.10000000E-07 
   1.00000000E+03   -2.72700000E-05 
   6.47100000E+01   -1.80535000E-03 
   2.10600000E+01   -5.86561000E-03 
   7.49500000E+00   -5.51393100E-02 
   2.79700000E+00   -6.69876600E-02 
   5.21500000E-01    5.47743760E-01 
S    1    1.000000
   1.59600000E-01    1.00000000E+00 
P    3    1.000000
   9.43900000E+00    3.81090000E-02 
   2.00200000E+00    2.09480000E-01 
   5.45600000E-01    5.08557000E-01 
P    1    1.000000
   1.51700000E-01    1.00000000E+00 
D    1    1.000000
   5.50000000E-01    1.00000000E+00 

6    0
S    3    1.000000
   1.30100000E+01    1.96850000E-02 
   1.96200000E+00    1.37977000E-01 
   4.44600000E-01    4.78148000E-01 
S    1    1.000000
   1.22000000E-01    1.00000000E+00 
P    1    1.000000
   7.27000000E-01    1.00000000E+00 

7    0
S    7    1.000000
   6.66500000E+03    6.91990000E-04 
   1.00000000E+03    5.32976000E-03 
   2.28000000E+02    2.70770000E-02 
   6.47100000E+01    1.01768130E-01 
   2.10600000E+01    2.74902850E-01 
   7.49500000E+00    4.50094590E-01 
   2.79700000E+00    2.86933450E-01 
S    7    1.000000
   6.66500000E+03    3.10000000E-07 
   1.00000000E+03   -2.72700000E-05 
   6.47100000E+01   -1.80535000E-03 
   2.10600000E+01   -5.86561000E-03 
   7.49500000E+00   -5.51393100E-02 
   2.79700000E+00   -6.69876600E-02 
   5.21500000E-01    5.47743760E-01 
S    1    1.000000
   1.59600000E-01    1.00000000E+00 
P    3    1.000000
   9.43900000E+00    3.81090000E-02 
   2.00200000E+00    2.09480000E-01 
   5.45600000E-01    5.08557000E-01 
P    1    1.000000
   1.51700000E-01    1.00000000E+00 
D    1    1.000000
   5.50000000E-01    1.00000000E+00 

8    0
S    3    1.000000
   1.30100000E+01    1.96850000E-02 
   1.96200000E+00    1.37977000E-01 
   4.44600000E-01    4.78148000E-01 
S    1    1.000000
   1.22000000E-01    1.00000000E+00 
P    1    1.000000
   7.27000000E-01    1.00000000E+00 

9    0
S    7    1.000000
   6.66500000E+03    6.91990000E-04 
   1.00000000E+03    5.32976000E-03 
   2.28000000E+02    2.70770000E-02 
   6.47100000E+01    1.01768130E-01 
   2.10600000E+01    2.74902850E-01 
   7.49500000E+00    4.50094590E-01 
   2.79700000E+00    2.86933450E-01 
S    7    1.000000
   6.66500000E+03    3.10000000E-07 
   1.00000000E+03   -2.72700000E-05 
   6.47100000E+01   -1.80535000E-03 
   2.10600000E+01   -5.86561000E-03 
   7.49500000E+00   -5.51393100E-02 
   2.79700000E+00   -6.69876600E-02 
   5.21500000E-01    5.47743760E-01 
S    1    1.000000
   1.59600000E-01    1.00000000E+00 
P    3    1.000000
   9.43900000E+00    3.81090000E-02 
   2.00200000E+00    2.09480000E-01 
   5.45600000E-01    5.08557000E-01 
P    1    1.000000
   1.51700000E-01    1.00000000E+00 
D    1    1.000000
   5.50000000E-01    1.00000000E+00 

10    0
S    3    1.000000
   1.30100000E+01    1.96850000E-02 
   1.96200000E+00    1.37977000E-01 
   4.44600000E-01    4.78148000E-01 
S    1    1.000000
   1.22000000E-01    1.00000000E+00 
P    1    1.000000
   7.27000000E-01    1.00000000E+00 

[MO]
Sym=X
Ene= 2.000000
Spin=Alpha
Occup=1
     1    9.845803568615e-02
     2    1.340054682475e-03
     3    1.113434878474e-03
     4   -1.416795900357e-04
     5   -1.287659512260e-14
     6    9.961847214887e-05
     7    8.238307652225e-04
     8   -7.932545043619e-15
     9   -1.125067123917e-03
    10    1.111942738305e-04
    11   -2.384237792901e-04
    12    2.689846556640e-16
    13    1.592374506741e-04
    14    8.229042737001e-17
    15    9.054366560028e-05
    16    2.170198618296e-04
    17   -1.135078653360e-04
    18   -2.771323876824e-16
    19    1.385165766689e-04
    20   -6.338426157002e-01
    21   -1.146179150773e-02
    22    4.165004979572e-03
    23    4.168415147694e-04
    24   -1.149568380700e-14
    25   -5.899759023355e-04
    26    6.295959133277e-05
    27   -6.678018667585e-15
    28   -1.100584314880e-03
    29    2.752690492732e-06
    30   -3.240682975023e-04
    31    3.975757978992e-17
    32   -7.354518609132e-04
    33    1.198288721347e-15
    34    6.149411796560e-04
    35   -7.098000612205e-04
    36   -4.858570695593e-04
    37   -9.150507298207e-16
    38   -9.654462856773e-05
    39    2.449909302759e-01
    40    4.726670576864e-03
    41   -5.289504369393e-03
    42    1.056724862136e-04
    43   -1.031875772183e-14
    44    1.260139839352e-04
    45   -2.012985031455e-03
    46   -8.133684838107e-15
    47    2.427544011829e-03
    48    1.153765692797e-04
    49   -4.081190159532e-04
    50    2.028497270536e-17
    51    3.165867299221e-04
    52   -1.362638951353e-15
    53   -5.006211429201e-04
    54   -6.401947018228e-04
    55   -2.941980688259e-04
    56   -8.616734092066e-16
    57   -2.129917610890e-05
    58   -7.034106829017e-01
    59   -1.316973598189e-02
    60    8.834746012616e-03
    61   -2.228309898574e-05
    62   -8.569160173245e-15
    63   -3.433372268125e-05
    64    5.694566069664e-04
    65   -3.999718117160e-15
    66    2.546006826740e-03
    67   -4.344652004251e-04
    68   -6.974913926723e-04
    69   -6.569194166225e-16
    70   -4.568958315538e-04
    71   -1.388125263154e-16
    72    7.620751174073e-04
    73   -3.069760266844e-04
    74    3.870324290396e-04
    75   -1.014993110633e-16
    76    4.578235056111e-04
    77    1.700154696743e-01
    78    3.506827735121e-03
    79   -4.273165024552e-03
    80    1.078460943892e-05
    81   -1.033014414419e-14
    82    6.159651689323e-05
    83    4.348300118402e-04
    84   -7.681151364904e-15
    85   -1.403515643758e-03
    86    3.485628642570e-04
    87   -6.569309016088e-04
    88   -6.465927265289e-16
    89    4.980241284853e-04
    90    1.772021386664e-15
    91   -5.319007691844e-04
    92   -2.053800739447e-04
    93    2.499573631700e-04
    94   -2.951350759571e-16
    95   -3.702251917897e-04
Sym=X
Ene= 2.000000
Spin=Alpha
Occup=1
     1    8.851810748924e-01
     2    1.595929828645e-02
     3   -9.969120695839e-03
     4    2.123267393972e-06
     5    1.467916095051e-14
     6   -7.194565444200e-05
     7   -7.751326376429e-05
     8    8.456522132391e-15
     9    3.666969216616e-03
    10    1.514626827297e-04
    11   -5.051621295794e-06
    12    6.507613011109e-16
    13   -2.236455605672e-04
    14   -2.569506540984e-16
    15   -6.172135122249e-04
    16   -2.602673051737e-04
    17    1.298040037610e-05
    18   -1.598883474923e-16
    19    5.041254396546e-04
    20    3.081058995370e-01
    21    5.522721807446e-03
    22    2.847296534059e-03
    23   -3.123210148190e-04
    24    1.135329117090e-14
    25    4.253721957045e-04
    26   -3.288748057399e-03
    27    6.403507832025e-15
    28   -3.894298671356e-04
    29   -8.094936678915e-06
    30    2.681499202536e-04
    31    1.267604510917e-15
    32    2.654503051531e-04
    33   -1.655651157532e-15
    34   -1.984435722454e-04
    35    1.338887403810e-03
    36    3.161949543212e-04
    37    3.227669235115e-16
    38   -3.324357599175e-05
    39    3.021922177005e-01
    40    5.463551825390e-03
    41    2.337587027108e-03
    42    3.224995220192e-04
    43    9.622957386744e-15
    44    4.214774588920e-04
    45    3.064763687119e-03
    46    8.575063898213e-15
    47   -2.731745059426e-04
    48   -4.553245580060e-06
    49   -3.409883910102e-04
    50    1.173538098354e-15
    51    3.362735883063e-04
    52    1.024412763679e-15
    53   -2.472877389231e-04
    54    1.273846754111e-03
    55   -3.480310435515e-04
    56    4.018634962066e-16
    57   -2.087020807810e-05
    58   -1.063288070645e-02
    59   -3.169751257609e-04
    60   -5.682717464886e-04
    61    1.188107402499e-04
    62    7.311176459864e-15
    63   -1.441044805808e-04
    64   -4.042498181932e-04
    65    4.418662401381e-15
    66   -8.753683871107e-04
    67   -1.201179906496e-04
    68   -8.017929421224e-05
    69    2.244694209902e-15
    70   -3.259231677098e-05
    71   -2.043262088655e-15
    72   -3.135601611691e-05
    73   -2.453971775908e-04
    74    4.738694381894e-05
    75   -6.350158176739e-16
    76    9.295669155494e-05
    77    1.575041592848e-01
    78    2.827752688468e-03
    79   -2.621625080541e-03
    80   -1.183355542008e-04
    81    9.936257306588e-15
    82   -1.360844104200e-04
    83    9.262974231820e-04
    84    4.224073811706e-15
    85   -1.195135313241e-03
    86   -2.154368142708e-05
    87   -8.730955969902e-05
    88    8.860026272308e-16
    89    1.034289450593e-04
    90   -2.317269475311e-15
    91   -2.224573626420e-04
    92   -1.868452187679e-04
    93    3.204406899545e-05
    94   -1.606709474156e-16
    95   -3.748386123619e-05
Sym=X
Ene= 2.000000
Spin=Alpha
Occup=1
     1    3.813306321132e-01
     2    5.933812536548e-03
     3    7.240018569962e-05
     4   -8.349700056779e-06
     5    3.575454703562e-15
     6    1.577540965979e-04
     7    1.785558256956e-04
     8    1.771170589128e-15
     9   -1.375900651899e-03
    10    5.736085765882e-04
    11    3.154663567804e-06
    12    8.685100029714e-16
    13    3.895308629416e-04
    14   -1.419591845465e-15
    15   -1.527104175465e-04
    16    3.512847063099e-04
    17   -2.919104613157e-05
    18   -9.103509313882e-16
    19    5.653472859663e-04
    20   -5.928044869874e-01
    21   -1.062890774400e-02
    22    2.690806531278e-03
    23    3.458215353666e-04
    24    5.137813705958e-15
    25   -4.826865404334e-04
    26    9.630879567286e-04
    27    3.727483626003e-15
    28    7.013681369168e-05
    29    4.115508098257e-05
    30   -1.375246104570e-04
    31    1.069431223741e-15
    32   -7.580304451768e-04
    33   -1.822509887665e-15
    34    4.103747345252e-04
    35   -1.090225578039e-03
    36   -4.224180472161e-04
    37    8.975714108566e-16
    38   -1.782632246439e-04
    39   -5.554886330970e-01
    40   -1.004080803310e-02
    41    3.433120393962e-03
    42   -3.509550098077e-04
    43    4.853190240628e-15
    44   -4.541268034214e-04
    45   -5.728741931741e-04
    46    4.298372300337e-15
    47   -5.934089266799e-05
    48    3.735983193605e-05
    49    2.615729128361e-04
    50   -9.425646599802e-17
    51   -8.687711485556e-04
    52   -2.079708694425e-16
    53    4.754238406910e-04
    54   -9.584520957441e-04
    55    4.632790223975e-04
    56    1.729891515904e-17
    57   -2.007625085303e-04
    58    4.211138522984e-01
    59    7.783096476933e-03
    60   -3.665489174806e-03
    61   -7.421939528768e-05
    62    6.395242474085e-15
    63   -1.669068696079e-05
    64   -2.051750339235e-04
    65    2.250458158819e-15
    66   -5.355409357702e-04
    67    4.495741468920e-04
    68    4.067642005491e-04
    69    1.125086601164e-16
    70    2.542700973726e-04
    71    7.480078147488e-16
    72   -5.033311469744e-04
    73    3.322003494042e-04
    74   -2.791067782431e-04
    75    9.669778699207e-16
    76   -3.384934123075e-04
    77    1.110514621676e-01
    78    1.993776247104e-03
    79    5.022319158782e-05
    80    7.293754852575e-05
    81    6.260255123808e-15
    82   -2.990477365084e-05
    83   -8.071189316865e-04
    84    3.947117234134e-15
    85   -1.230518326237e-05
    86    2.756605652655e-04
    87   -1.119614293444e-04
    88    2.055359294555e-15
    89    1.064315563191e-05
    90   -2.939479153175e-16
    91   -1.596676417810e-04
    92    2.183425495000e-04
    93    1.391425129544e-04
    94    1.766872204497e-15
    95   -1.023157471902e-04
Sym=X
Ene= 2.000000
Spin=Alpha
Occup=1
     1    1.906328697119e-01
     2    2.884831110513e-03
     3    7.451108547503e-04
     4    1.578847289715e-04
     5   -2.174047813377e-15
     6    1.282606895077e-04
     7   -1.324123162043e-03
     8   -9.971436571865e-16
     9   -1.214466309627e-03
    10    1.028724714261e-04
    11    2.119526066098e-04
    12    4.694515458752e-16
    13    1.712578793607e-04
    14   -5.637964882867e-16
    15    1.067259778969e-04
    16    2.672946290746e-04
    17    1.967736264193e-04
    18   -1.038596798136e-15
    19    1.855795421532e-04
    20    2.773645517939e-01
    21    5.248104112119e-03
    22   -4.375388867196e-03
    23   -7.285951338820e-05
    24   -8.527530053002e-18
    25    1.223009487157e-04
    26    1.521343725822e-03
    27    3.016363046693e-17
    28    2.478704543695e-03
    29    1.351543041367e-04
    30    2.794454948299e-04
    31    2.691070843049e-16
    32    1.408445206783e-04
    33    3.907678677803e-16
    34   -4.201247489449e-04
    35   -5.520663872473e-04
    36    2.506313336129e-04
    37    1.286677307295e-16
    38   -6.767052532547e-05
    39   -6.567704421106e-01
    40   -1.164895702544e-02
    41    2.101570792998e-03
    42   -3.972020018488e-04
    43    1.826723044893e-16
    44   -6.329909176545e-04
    45   -9.260484977960e-04
    46   -1.412824196455e-15
    47   -3.991011963001e-04
    48    4.223441428398e-05
    49    1.424981250218e-05
    50   -3.004773591891e-16
    51   -4.919747543109e-04
    52    8.752976912227e-17
    53    4.145066285835e-04
    54   -1.028409534484e-03
    55    3.474277580268e-04
    56    1.109587987213e-17
    57   -6.739589960642e-05
    58   -5.458366042797e-01
    59   -9.779201791051e-03
    60    3.529309095169e-03
    61    4.981367954791e-06
    62    1.293689196625e-15
    63    3.514378827265e-05
    64    1.104010674726e-03
    65    2.388347875221e-15
    66   -1.582533051839e-04
    67   -4.342970145263e-05
    68    9.492354848162e-05
    69    1.373588259969e-16
    70    7.921646819224e-05
    71   -6.527398117712e-16
    72    1.619501430460e-04
    73   -6.133174311165e-04
    74    6.821051246616e-05
    75   -8.153531815952e-16
    76    9.344146524276e-05
    77   -3.899191587400e-01
    78   -7.210730841931e-03
    79    4.117744645285e-03
    80    9.719494248562e-06
    81    2.202881540145e-15
    82   -1.282661955685e-05
    83    1.123559040672e-03
    84    1.175122703714e-15
    85    1.881688792809e-03
    86   -2.286700630246e-04
    87    2.442933864828e-04
    88    7.486571208655e-16
    89   -4.818836498828e-05
    90   -4.468838740677e-16
    91    2.923191446573e-04
    92   -3.522020838956e-04
    93   -2.236305263349e-04
    94    8.104866147618e-16
    95    1.260852494780e-04
Sym=X
Ene= 2.000000
Spin=Alpha
Occup=1
     1    1.408714122468e-01
     2    2.372081422294e-03
     3   -5.872582378611e-04
     4   -1.053727248052e-04
     5    6.641368865743e-16
     6    4.428603943173e-05
     7    1.219786931106e-03
     8    3.946997516302e-16
     9   -1.240579216026e-04
    10   -3.776907793825e-05
    11   -9.698040744156e-05
    12    3.310763643277e-17
    13    7.126910046087e-06
    14    2.252349054760e-16
    15    3.783511837620e-05
    16    7.562408581732e-05
    17   -1.894942621179e-04
    18    1.795419417881e-16
    19    5.717909233157e-05
    20   -2.641905344367e-01
    21   -4.503436621211e-03
    22   -6.561426974075e-04
    23    1.102184494483e-04
    24   -2.672593988983e-15
    25   -2.594521340706e-04
    26    7.672812884100e-04
    27   -7.307747871096e-16
    28    1.345604691173e-04
    29    3.271755509087e-05
    30    2.822202118114e-04
    31   -2.967541710207e-16
    32    1.011492767570e-04
    33    2.502725286306e-16
    34   -1.118333065881e-05
    35   -4.929580745933e-04
    36    1.077264640821e-05
    37    1.493438664282e-16
    38    2.741123330758e-05
    39    3.218305022695e-01
    40    5.827735384091e-03
    41   -1.619651128696e-03
    42    1.106297840347e-04
    43   -1.910419539246e-15
    44    2.093821161748e-04
    45    1.412004198474e-04
    46   -3.017926210496e-16
    47    1.183024097927e-03
    48    6.776417017611e-05
    49   -4.602208520980e-05
    50   -5.802779987077e-17
    51    7.695624744648e-05
    52    4.248869011623e-16
    53   -2.301162141308e-04
    54    1.549870238021e-04
    55   -1.854557965108e-04
    56    8.844424727381e-17
    57   -4.239623823112e-05
    58    1.572612857236e-01
    59    3.015838217478e-03
    60   -2.831271077655e-03
    61    2.121398875245e-05
    62   -5.350099850554e-15
    63    5.793141947243e-06
    64   -2.270644829896e-03
    65   -4.000276326676e-15
    66    2.275258770690e-04
    67    4.635415369992e-05
    68    2.658909298995e-04
    69   -4.709012425548e-16
    70    3.309263029111e-04
    71   -1.597946640423e-17
    72   -2.899525004809e-04
    73   -1.630268598249e-04
    74   -3.434953277844e-05
    75   -3.926984851930e-16
    76   -2.338456445317e-04
    77   -8.813756499962e-01
    78   -1.620442126794e-02
    79    8.378090394605e-03
    80   -3.258724814376e-05
    81   -6.022319728358e-15
    82   -1.096430168251e-05
    83   -1.985833101660e-03
    84   -3.862590928291e-15
    85    8.203219446149e-04
    86   -3.988748633686e-04
    87    4.761226255227e-04
    88   -1.701960717494e-16
    89   -3.592990880968e-04
    90    3.300131011298e-17
    91    7.085437774245e-04
    92   -6.470975728576e-04
    93   -3.207741022240e-04
    94    3.263178427867e-16
    95    4.810389351316e-04
Sym=X
Ene= 1.985279
Spin=Alpha
Occup=1
     1    1.308951081566e-01
     2   -2.670647447681e-01
     3   -2.333160297330e-01
     4    2.114746753080e-13
     5    4.525681675040e-16
     6    1.060333495488e-02
     7    5.830940424799e-14
     8    1.080408679626e-15
     9    3.217655648227e-02
    10   -4.680872899981e-03
    11   -1.903862114599e-14
    12    8.462537196712e-16
    13   -9.622563931451e-03
    14   -2.815106610699e-16
    15   -1.247232238225e-01
    16   -1.981511496915e-02
    17    6.617587343145e-15
    18   -2.634090395655e-16
    19    1.889983188306e-02
    20    8.902489401519e-02
    21   -1.783035851688e-01
    22   -6.139091940219e-02
    23    4.557920258091e-02
    24   -1.942608348593e-15
    25    1.432474932370e-03
    26   -2.344566909188e-02
    27   -5.075157551427e-16
    28   -1.091252383289e-02
    29   -7.129215772637e-03
    30    7.208589538975e-03
    31    6.460708512707e-16
    32   -9.442910181818e-03
    33   -8.473347060736e-16
    34   -6.763888243756e-02
    35   -7.534959678810e-04
    36    9.417926739204e-03
    37    9.148230571447e-16
    38    3.525375720090e-03
    39    8.902489401585e-02
    40   -1.783035851697e-01
    41   -6.139091940284e-02
    42   -4.557920258076e-02
    43   -1.557191413451e-15
    44    1.432474932463e-03
    45    2.344566909179e-02
    46   -1.919910271576e-15
    47   -1.091252383281e-02
    48   -7.129215772679e-03
    49   -7.208589538969e-03
    50    3.520674292270e-16
    51   -9.442910181840e-03
    52   -2.204686179514e-16
    53   -6.763888243810e-02
    54   -7.534959680722e-04
    55   -9.417926739253e-03
    56    1.091151431116e-16
    57    3.525375720122e-03
    58    7.988632715961e-02
    59   -1.597776428700e-01
    60   -1.108083351982e-01
    61   -1.979230605685e-02
    62   -3.246727509784e-15
    63   -3.245571237380e-02
    64   -3.886052171001e-03
    65   -1.721087309204e-15
    66   -1.280710983279e-02
    67   -4.467005860085e-03
    68    1.456213527284e-03
    69    6.574283988671e-16
    70   -7.109104232008e-03
    71   -3.565529661393e-16
    72   -6.246998243452e-02
    73   -1.088290448045e-02
    74   -4.845365738457e-03
    75    3.340450476925e-16
    76   -6.496145748997e-03
    77    7.988632715926e-02
    78   -1.597776428695e-01
    79   -1.108083351978e-01
    80    1.979230605715e-02
    81   -2.986439991610e-15
    82   -3.245571237362e-02
    83    3.886052171024e-03
    84   -2.701488373211e-15
    85   -1.280710983276e-02
    86   -4.467005860042e-03
    87   -1.456213527249e-03
    88    5.749500165296e-17
    89   -7.109104232005e-03
    90    2.210473924067e-17
    91   -6.246998243421e-02
    92   -1.088290448039e-02
    93    4.845365738446e-03
    94   -7.628877400508e-16
    95   -6.496145748960e-03
Sym=X
Ene= 1.980603
Spin=Alpha
Occup=1
     1   -1.184679399947e-01
     2    2.504972349870e-01
     3    1.974894735822e-01
     4   -2.210317658651e-13
     5    6.018748901243e-15
     6    8.054766376111e-02
     7   -1.372548856673e-13
     8    2.879744629411e-15
     9    4.427356379029e-03
    10    1.014877868888e-03
    11    2.026825640353e-14
    12   -5.155170890312e-16
    13    4.569301331229e-03
    14    2.214199743268e-16
    15    1.799450063577e-01
    16    2.534779828638e-02
    17   -4.261007275066e-16
    18    3.353397473218e-16
    19   -2.544427345564e-02
    20   -3.926026779383e-03
    21    2.870211908462e-03
    22   -6.205754463978e-03
    23   -2.178352328680e-02
    24    7.574379659798e-15
    25    1.015476984455e-01
    26   -7.452993015917e-03
    27    3.156913443776e-15
    28    3.302764709439e-02
    29   -5.192265799139e-03
    30   -1.851518921239e-02
    31    7.391497199243e-16
    32    4.287836553921e-03
    33    4.516994481339e-16
    34    1.661860841968e-02
    35    4.304702293841e-03
    36   -3.389521597754e-03
    37    7.288670202810e-17
    38    3.510501879066e-04
    39   -3.926026779675e-03
    40    2.870211909198e-03
    41   -6.205754463632e-03
    42    2.178352328661e-02
    43    6.940284669471e-15
    44    1.015476984456e-01
    45    7.452993015847e-03
    46    5.562158431230e-15
    47    3.302764709438e-02
    48   -5.192265799124e-03
    49    1.851518921239e-02
    50   -1.042299124291e-15
    51    4.287836553937e-03
    52    1.633338710530e-15
    53    1.661860842027e-02
    54    4.304702294031e-03
    55    3.389521597805e-03
    56    4.331886686928e-16
    57    3.510501878837e-04
    58    1.095747737790e-01
    59   -2.176176596261e-01
    60   -1.304696620042e-01
    61   -1.474253537000e-02
    62    8.257313031324e-15
    63    5.340679437550e-02
    64   -1.352000324213e-02
    65    2.387600135108e-15
    66    1.358184377859e-02
    67    3.705719309350e-03
    68    4.256501699981e-04
    69   -8.638119655458e-16
    70   -1.228471341423e-02
    71   -5.927850715741e-16
    72   -1.504725336217e-01
    73   -3.837674001701e-02
    74   -1.041123493181e-02
    75   -3.243119528367e-16
    76   -1.229657451642e-02
    77    1.095747737791e-01
    78   -2.176176596263e-01
    79   -1.304696620043e-01
    80    1.474253536987e-02
    81    9.189603909429e-15
    82    5.340679437535e-02
    83    1.352000324210e-02
    84    8.700972518729e-15
    85    1.358184377846e-02
    86    3.705719309313e-03
    87   -4.256501700236e-04
    88    2.361527029190e-15
    89   -1.228471341422e-02
    90   -2.212324127552e-15
    91   -1.504725336217e-01
    92   -3.837674001707e-02
    93    1.041123493181e-02
    94    5.491958830580e-16
    95   -1.229657451644e-02
Sym=X
Ene= 1.977823
Spin=Alpha
Occup=1
     1   -4.292360892068e-13
     2    9.225780729014e-13
     3    8.672549665466e-13
     4    1.011347028268e-01
     5    1.927901308602e-15
     6    2.949663233031e-13
     7    5.290463251904e-02
     8    1.040738791947e-15
     9   -1.262018404996e-14
    10    2.165472908170e-14
    11   -1.002936416791e-02
    12    8.394791613389e-17
    13    1.369523456909e-14
    14    4.701219070708e-16
    15    6.844868716552e-13
    16    1.273003406117e-13
    17    1.333855123242e-03
    18   -5.770496432477e-17
    19   -8.895609993561e-14
    20   -1.074430804243e-01
    21    2.203958249345e-01
    22    1.216445976493e-01
    23    6.915657367874e-02
    24    1.793288765557e-15
    25   -3.306444189126e-03
    26    1.427404987122e-02
    27   -1.615119432210e-15
    28   -1.022512672748e-02
    29    9.987080609844e-03
    30    1.144552645641e-03
    31    1.631836652673e-15
    32    4.521030855340e-03
    33    4.962015217060e-16
    34    1.712738235459e-01
    35    4.888228579572e-02
    36   -1.580634660009e-02
    37    6.010767131574e-16
    38   -7.190934053382e-03
    39    1.074430804243e-01
    40   -2.203958249343e-01
    41   -1.216445976495e-01
    42    6.915657367916e-02
    43    1.835748015648e-15
    44    3.306444189347e-03
    45    1.427404987115e-02
    46    5.174786515197e-15
    47    1.022512672761e-02
    48   -9.987080609814e-03
    49    1.144552645740e-03
    50   -1.045740388773e-15
    51   -4.521030855316e-03
    52    1.153337599202e-15
    53   -1.712738235460e-01
    54   -4.888228579587e-02
    55   -1.580634660008e-02
    56   -5.980938403540e-16
    57    7.190934053382e-03
    58    7.588757007207e-02
    59   -1.528067238185e-01
    60   -1.000990043494e-01
    61    1.002633851280e-01
    62    9.038264564440e-16
    63    2.772024505583e-03
    64    2.539514396922e-02
    65   -4.665554313293e-15
    66   -1.140175043478e-02
    67   -1.229170281779e-02
    68    3.387833453923e-03
    69   -6.609048781693e-16
    70    1.188531057217e-03
    71   -1.917183205671e-15
    72   -1.380459463928e-01
    73   -4.216090462510e-02
    74   -6.708263573985e-03
    75    7.861319234459e-16
    76   -1.152088346047e-02
    77   -7.588757007226e-02
    78    1.528067238186e-01
    79    1.000990043496e-01
    80    1.002633851280e-01
    81    2.311999065574e-15
    82   -2.772024505609e-03
    83    2.539514396922e-02
    84    5.684695887416e-15
    85    1.140175043480e-02
    86    1.229170281780e-02
    87    3.387833453914e-03
    88    5.734056442074e-16
    89   -1.188531057223e-03
    90   -1.707429264483e-15
    91    1.380459463929e-01
    92    4.216090462511e-02
    93   -6.708263573987e-03
    94   -2.345514841530e-15
    95    1.152088346048e-02
Sym=X
Ene= 1.970767
Spin=Alpha
Occup=1
     1    9.879634463423e-15
     2    4.898017732472e-14
     3   -4.878663180794e-14
     4    8.932121017599e-02
     5   -5.931892310505e-15
     6   -2.814293539238e-14
     7    4.092932527694e-02
     8   -4.794263043786e-15
     9    6.721321862015e-15
    10   -2.813855453300e-15
    11   -4.440910792656e-03
    12    1.351213246735e-17
    13    8.697275360903e-15
    14   -1.061346889824e-15
    15    3.002973098870e-15
    16   -3.468307048115e-15
    17    4.668197465698e-04
    18   -1.688187925044e-16
    19    5.253425728796e-17
    20   -5.897799859496e-02
    21    1.257497965320e-01
    22    1.248972436213e-01
    23    8.669370363916e-02
    24   -2.265739016058e-15
    25    1.111195338259e-01
    26    9.483462225680e-03
    27    7.023360933869e-16
    28    4.594500051590e-03
    29   -9.414396613494e-03
    30    2.550814124749e-03
    31    3.925124111072e-16
    32    7.145218843429e-03
    33    1.549435457648e-15
    34    1.746647316994e-01
    35    6.401245634981e-02
    36   -1.280081107729e-02
    37   -2.498905432803e-15
    38   -4.353317427338e-03
    39    5.897799859485e-02
    40   -1.257497965316e-01
    41   -1.248972436210e-01
    42    8.669370363902e-02
    43   -1.636528435103e-15
    44   -1.111195338258e-01
    45    9.483462225693e-03
    46   -3.191923907293e-15
    47   -4.594500051605e-03