[Molden Format]
[Atoms] (Angs)
  N      1    7      0.00000000     -0.00000000      1.11738466
  H      2    1      0.00000000     -0.00000000      2.12136066
  C      3    6      1.12201016     -0.00000000      0.33463977
  H      4    1      2.10556415     -0.00000000      0.76898420
  C      5    6     -1.12201016      0.00000000      0.33463977
  H      6    1     -2.10556415      0.00000000      0.76898420
  C      7    6     -0.70797599     -0.00000000     -0.98428136
  H      8    1     -1.35674211      0.00000000     -1.84266130
  C      9    6      0.70797599      0.00000000     -0.98428136
  H     10    1      1.35674211      0.00000000     -1.84266130
[GTO]
1    0
S    7    1.000000
   9.04600000E+03    7.00000000E-04 
   1.35700000E+03    5.38983000E-03 
   3.09300000E+02    2.74060000E-02 
   8.77300000E+01    1.03262320E-01 
   2.85600000E+01    2.78905240E-01 
   1.02100000E+01    4.50217400E-01 
   3.83800000E+00    2.79943000E-01 
S    7    1.000000
   9.04600000E+03    5.00000000E-08 
   1.35700000E+03   -2.97600000E-05 
   8.77300000E+01   -1.97900000E-03 
   2.85600000E+01   -6.51949000E-03 
   1.02100000E+01   -6.00100000E-02 
   3.83800000E+00   -6.09975300E-02 
   7.46600000E-01    5.52378750E-01 
S    1    1.000000
   2.24800000E-01    1.00000000E+00 
P    3    1.000000
   1.35500000E+01    3.99190000E-02 
   2.91700000E+00    2.17169000E-01 
   7.97300000E-01    5.10319000E-01 
P    1    1.000000
   2.18500000E-01    1.00000000E+00 
D    1    1.000000
   8.17000000E-01    1.00000000E+00 

2    0
S    3    1.000000
   1.30100000E+01    1.96850000E-02 
   1.96200000E+00    1.37977000E-01 
   4.44600000E-01    4.78148000E-01 
S    1    1.000000
   1.22000000E-01    1.00000000E+00 
P    1    1.000000
   7.27000000E-01    1.00000000E+00 

3    0
S    7    1.000000
   6.66500000E+03    6.91990000E-04 
   1.00000000E+03    5.32976000E-03 
   2.28000000E+02    2.70770000E-02 
   6.47100000E+01    1.01768130E-01 
   2.10600000E+01    2.74902850E-01 
   7.49500000E+00    4.50094590E-01 
   2.79700000E+00    2.86933450E-01 
S    7    1.000000
   6.66500000E+03    3.10000000E-07 
   1.00000000E+03   -2.72700000E-05 
   6.47100000E+01   -1.80535000E-03 
   2.10600000E+01   -5.86561000E-03 
   7.49500000E+00   -5.51393100E-02 
   2.79700000E+00   -6.69876600E-02 
   5.21500000E-01    5.47743760E-01 
S    1    1.000000
   1.59600000E-01    1.00000000E+00 
P    3    1.000000
   9.43900000E+00    3.81090000E-02 
   2.00200000E+00    2.09480000E-01 
   5.45600000E-01    5.08557000E-01 
P    1    1.000000
   1.51700000E-01    1.00000000E+00 
D    1    1.000000
   5.50000000E-01    1.00000000E+00 

4    0
S    3    1.000000
   1.30100000E+01    1.96850000E-02 
   1.96200000E+00    1.37977000E-01 
   4.44600000E-01    4.78148000E-01 
S    1    1.000000
   1.22000000E-01    1.00000000E+00 
P    1    1.000000
   7.27000000E-01    1.00000000E+00 

5    0
S    7    1.000000
   6.66500000E+03    6.91990000E-04 
   1.00000000E+03    5.32976000E-03 
   2.28000000E+02    2.70770000E-02 
   6.47100000E+01    1.01768130E-01 
   2.10600000E+01    2.74902850E-01 
   7.49500000E+00    4.50094590E-01 
   2.79700000E+00    2.86933450E-01 
S    7    1.000000
   6.66500000E+03    3.10000000E-07 
   1.00000000E+03   -2.72700000E-05 
   6.47100000E+01   -1.80535000E-03 
   2.10600000E+01   -5.86561000E-03 
   7.49500000E+00   -5.51393100E-02 
   2.79700000E+00   -6.69876600E-02 
   5.21500000E-01    5.47743760E-01 
S    1    1.000000
   1.59600000E-01    1.00000000E+00 
P    3    1.000000
   9.43900000E+00    3.81090000E-02 
   2.00200000E+00    2.09480000E-01 
   5.45600000E-01    5.08557000E-01 
P    1    1.000000
   1.51700000E-01    1.00000000E+00 
D    1    1.000000
   5.50000000E-01    1.00000000E+00 

6    0
S    3    1.000000
   1.30100000E+01    1.96850000E-02 
   1.96200000E+00    1.37977000E-01 
   4.44600000E-01    4.78148000E-01 
S    1    1.000000
   1.22000000E-01    1.00000000E+00 
P    1    1.000000
   7.27000000E-01    1.00000000E+00 

7    0
S    7    1.000000
   6.66500000E+03    6.91990000E-04 
   1.00000000E+03    5.32976000E-03 
   2.28000000E+02    2.70770000E-02 
   6.47100000E+01    1.01768130E-01 
   2.10600000E+01    2.74902850E-01 
   7.49500000E+00    4.50094590E-01 
   2.79700000E+00    2.86933450E-01 
S    7    1.000000
   6.66500000E+03    3.10000000E-07 
   1.00000000E+03   -2.72700000E-05 
   6.47100000E+01   -1.80535000E-03 
   2.10600000E+01   -5.86561000E-03 
   7.49500000E+00   -5.51393100E-02 
   2.79700000E+00   -6.69876600E-02 
   5.21500000E-01    5.47743760E-01 
S    1    1.000000
   1.59600000E-01    1.00000000E+00 
P    3    1.000000
   9.43900000E+00    3.81090000E-02 
   2.00200000E+00    2.09480000E-01 
   5.45600000E-01    5.08557000E-01 
P    1    1.000000
   1.51700000E-01    1.00000000E+00 
D    1    1.000000
   5.50000000E-01    1.00000000E+00 

8    0
S    3    1.000000
   1.30100000E+01    1.96850000E-02 
   1.96200000E+00    1.37977000E-01 
   4.44600000E-01    4.78148000E-01 
S    1    1.000000
   1.22000000E-01    1.00000000E+00 
P    1    1.000000
   7.27000000E-01    1.00000000E+00 

9    0
S    7    1.000000
   6.66500000E+03    6.91990000E-04 
   1.00000000E+03    5.32976000E-03 
   2.28000000E+02    2.70770000E-02 
   6.47100000E+01    1.01768130E-01 
   2.10600000E+01    2.74902850E-01 
   7.49500000E+00    4.50094590E-01 
   2.79700000E+00    2.86933450E-01 
S    7    1.000000
   6.66500000E+03    3.10000000E-07 
   1.00000000E+03   -2.72700000E-05 
   6.47100000E+01   -1.80535000E-03 
   2.10600000E+01   -5.86561000E-03 
   7.49500000E+00   -5.51393100E-02 
   2.79700000E+00   -6.69876600E-02 
   5.21500000E-01    5.47743760E-01 
S    1    1.000000
   1.59600000E-01    1.00000000E+00 
P    3    1.000000
   9.43900000E+00    3.81090000E-02 
   2.00200000E+00    2.09480000E-01 
   5.45600000E-01    5.08557000E-01 
P    1    1.000000
   1.51700000E-01    1.00000000E+00 
D    1    1.000000
   5.50000000E-01    1.00000000E+00 

10    0
S    3    1.000000
   1.30100000E+01    1.96850000E-02 
   1.96200000E+00    1.37977000E-01 
   4.44600000E-01    4.78148000E-01 
S    1    1.000000
   1.22000000E-01    1.00000000E+00 
P    1    1.000000
   7.27000000E-01    1.00000000E+00 

[MO]
Sym=X
Ene= 2.000000
Spin=Alpha
Occup=1
     1    6.152159799274e-01
     2    1.140699408067e-02
     3   -8.507150640276e-03
     4    9.052701035997e-05
     5    2.486739148021e-14
     6   -1.248702537564e-04
     7   -5.828458995812e-04
     8    1.706044843869e-14
     9    3.633487926626e-03
    10    1.590408316690e-05
    11    1.448706466725e-04
    12    9.026758661233e-17
    13   -2.947962233145e-04
    14   -6.986680008619e-17
    15   -5.282284284716e-04
    16   -3.542155591818e-04
    17    8.229783400557e-05
    18    1.748133744326e-16
    19    2.789336829300e-04
    20    6.696885058566e-01
    21    1.207406047542e-02
    22   -5.827150970471e-04
    23   -5.229349539902e-04
    24    1.444477463058e-14
    25    7.253794303588e-04
    26   -2.641448845943e-03
    27    6.671672506866e-15
    28    4.112113834684e-04
    29   -7.908161783828e-06
    30    4.275083738513e-04
    31    1.010220973671e-15
    32    7.124564797992e-04
    33   -2.303071915474e-15
    34   -5.672542144710e-04
    35    1.538826280219e-03
    36    5.779794617581e-04
    37    4.977630961404e-16
    38    4.380475510043e-05
    39    1.144392735032e-01
    40    1.889258939990e-03
    41    4.893990925041e-03
    42    2.046728963690e-04
    43    1.218157687009e-14
    44    2.738149726818e-04
    45    3.668074063930e-03
    46    8.935457210069e-15
    47   -1.696589810438e-03
    48   -7.533950704007e-05
    49   -3.227896747271e-05
    50    1.390912769114e-15
    51    1.152630027432e-04
    52    2.227536329281e-15
    53    8.874398613185e-05
    54    1.438910287000e-03
    55   -1.172655979251e-04
    56    6.263404675244e-16
    57    7.422208506665e-06
    58    3.932007506712e-01
    59    7.283740213523e-03
    60   -5.655809868680e-03
    61    1.119117166139e-04
    62    6.162858533775e-15
    63   -9.015829488562e-05
    64   -6.723961968115e-04
    65    2.882314678836e-15
    66   -2.223240803158e-03
    67    1.460827521024e-04
    68    3.478750536366e-04
    69    2.029243211760e-15
    70    2.469171316995e-04
    71   -1.976199601565e-15
    72   -4.654606887079e-04
    73   -3.595775246358e-05
    74   -1.837979864247e-04
    75   -5.339551132876e-16
    76   -1.906894345391e-04
    77   -7.882941421935e-03
    78   -4.310536557711e-04
    79    7.705642391400e-04
    80   -1.043023159466e-04
    81    9.414371499409e-15
    82   -1.432602373457e-04
    83    4.959911416385e-04
    84    4.897801977212e-15
    85   -2.796086801386e-05
    86   -2.586765655415e-04
    87    3.548608279862e-04
    88    1.004861839281e-15
    89   -2.330014887507e-04
    90   -2.608915590850e-15
    91    1.789817929577e-04
    92   -4.883035393589e-05
    93   -1.461291901227e-04
    94   -1.504150548978e-16
    95    2.146457683805e-04
Sym=X
Ene= 2.000000
Spin=Alpha
Occup=1
     1    6.433248706948e-01
     2    1.122332014808e-02
     3   -5.334453635264e-03
     4   -1.199740704125e-04
     5   -5.815674431279e-16
     6    3.989481554759e-05
     7    7.112837108922e-04
     8   -7.492141288518e-16
     9    1.347845279230e-03
    10    1.962346847849e-04
    11   -2.000883681176e-04
    12    5.743339492185e-16
    13   -2.297397352509e-06
    14   -7.995178389525e-16
    15   -3.148007715600e-04
    16    2.202927042655e-05
    17   -9.848348279745e-05
    18   -2.725586107398e-16
    19    4.401730676650e-04
    20   -3.499248455881e-01
    21   -6.339712265408e-03
    22    5.143813909317e-03
    23    1.545084186237e-04
    24   -1.533585103945e-15
    25   -2.362587139334e-04
    26   -1.920861400414e-03
    27   -7.796025701204e-16
    28   -1.133815872115e-03
    29   -1.517429085733e-06
    30   -7.826459197092e-05
    31    8.190490329945e-16
    32   -4.338053402839e-04
    33   -2.912295429502e-16
    34    3.798328669955e-04
    35    2.083048084312e-04
    36   -2.035664131676e-04
    37   -3.764448488110e-16
    38   -9.924269558838e-05
    39    3.927484104829e-01
    40    7.330188548313e-03
    41   -2.725657559591e-03
    42    2.841793037673e-04
    43   -1.495075704579e-15
    44    3.686071527789e-04
    45    3.226785177566e-04
    46   -3.712029200562e-16
    47    1.818332938782e-03
    48    9.275571770416e-05
    49   -5.241759683726e-04
    50    5.456455010048e-16
    51    4.389022417354e-04
    52   -4.742240550451e-16
    53   -5.510757446313e-04
    54    2.806663119054e-04
    55   -4.478560092222e-04
    56   -4.070494237480e-16
    57   -3.835601746518e-05
    58   -5.217089566537e-01
    59   -9.846962363733e-03
    60    6.175773261784e-03
    61    5.468634610177e-05
    62   -1.605201383504e-15
    63   -1.166395824161e-04
    64    1.173299227675e-05
    65   -5.763013782369e-16
    66    1.451958581511e-03
    67   -3.944037252307e-04
    68   -5.643101830191e-04
    69    6.968521223599e-16
    70   -3.471980256758e-04
    71   -1.076342671729e-15
    72    5.363918868730e-04
    73   -3.805439120940e-04
    74    3.187631324195e-04
    75   -2.383148007774e-16
    76    3.859168377452e-04
    77    1.799052224944e-01
    78    3.562895612722e-03
    79   -4.452222265266e-03
    80   -6.448675876187e-05
    81   -1.641000923612e-15
    82   -3.738920630246e-05
    83    7.260700836597e-04
    84   -2.964399810696e-15
    85   -1.813027122180e-03
    86    2.455323331359e-04
    87   -5.432352013085e-04
    88    3.226608003776e-17
    89    4.299033254179e-04
    90    2.137595401398e-16
    91   -5.152061643378e-04
    92   -3.071097712329e-04
    93    2.019810616917e-04
    94   -3.747804157197e-16
    95   -2.853190419207e-04
Sym=X
Ene= 2.000000
Spin=Alpha
Occup=1
     1   -4.228903341149e-01
     2   -6.572971128973e-03
     3   -3.169881100312e-04
     4   -1.053103919503e-04
     5   -1.220280079848e-15
     6   -1.966243583862e-04
     7    8.025348701605e-04
     8   -8.563224441164e-16
     9    1.714635697064e-03
    10   -5.010948860194e-04
    11   -1.520501035876e-04
    12   -9.368340731388e-16
    13   -3.958580838359e-04
    14    1.153732437271e-15
    15    6.270923149823e-05
    16   -4.247294568423e-04
    17   -1.172876576826e-04
    18    1.396816321350e-15
    19   -5.521152740591e-04
    20    2.296390827944e-01
    21    3.942678730168e-03
    22    8.828537781891e-04
    23   -1.893582878939e-04
    24   -3.090069066303e-15
    25    2.470589027291e-04
    26   -1.623562613493e-03
    27   -2.452274735338e-15
    28   -1.696699752515e-03
    29   -1.180294836351e-04
    30   -8.516594636265e-05
    31   -7.649451499237e-16
    32    4.540847990260e-04
    33    1.258005938419e-15
    34   -1.122131737779e-05
    35    1.115266360638e-03
    36    1.328582576134e-04
    37   -5.860543971683e-16
    38    1.773186896904e-04
    39    8.616974927955e-01
    40    1.544021977249e-02
    41   -4.243654670366e-03
    42    5.251854313559e-04
    43   -2.495924335630e-15
    44    7.593057572563e-04
    45    9.130658754880e-04
    46   -1.665899232934e-15
    47    4.321741392479e-04
    48   -4.957788511563e-05
    49   -2.144757867832e-04
    50    3.663433135373e-16
    51    9.833639562744e-04
    52   -1.566049454574e-16
    53   -6.490826711070e-04
    54    1.353772733610e-03
    55   -5.856468987918e-04
    56    1.215431521031e-16
    57    1.938475545682e-04
    58    2.198667036534e-02
    59    2.051511627504e-04
    60    6.581405440907e-04
    61    5.028686027187e-05
    62   -4.884162021038e-15
    63   -8.270176032697e-06
    64   -6.201069509530e-04
    65   -2.893313434853e-15
    66    6.169092507360e-04
    67   -3.208907546449e-04
    68   -3.807092654120e-04
    69   -4.600522850549e-17
    70   -2.462242834818e-04
    71    2.398585980778e-16
    72    2.892121771409e-04
    73    1.397580308318e-04
    74    1.764341868219e-04
    75   -2.821989302721e-16
    76    1.990705930679e-04
    77    1.423170360142e-01
    78    2.693976040202e-03
    79   -2.519224069245e-03
    80   -5.971755741173e-05
    81   -5.403046859123e-15
    82    3.543356973011e-05
    83   -2.008610967689e-04
    84   -3.411872835477e-15
    85   -1.212833690733e-03
    86   -6.078949673020e-05
    87   -7.800020343656e-05
    88   -1.869035838072e-15
    89    2.484206914568e-05
    90    5.080859908497e-16
    91   -5.830107572242e-05
    92    3.995431704055e-05
    93    3.737130547097e-05
    94   -2.024649187170e-15
    95    4.721734671606e-07
Sym=X
Ene= 2.000000
Spin=Alpha
Occup=1
     1   -7.135720701630e-02
     2   -1.193215474978e-03
     3    6.935582263531e-04
     4    7.487924340830e-05
     5   -5.401390326364e-15
     6    1.936179441870e-05
     7   -5.871142337526e-04
     8   -3.276270933747e-15
     9   -2.668484170954e-04
    10   -2.852248873902e-04
    11    1.059310155429e-04
    12   -1.792943065012e-16
    13   -9.418314403438e-05
    14    1.190742616890e-15
    15    2.077605888349e-04
    16    2.537185031817e-05
    17    8.624873759005e-05
    18   -1.429276917129e-16
    19   -1.994043948227e-04
    20    4.239060548572e-01
    21    7.875847987392e-03
    22   -4.912078620156e-03
    23   -1.923874965888e-04
    24   -4.164251550457e-15
    25    2.460198221615e-04
    26    9.042584765553e-04
    27   -2.327614256516e-15
    28    1.747889285285e-03
    29    8.392937197478e-05
    30    3.590963649643e-04
    31   -9.246780484607e-16
    32    5.519323986736e-04
    33    2.099550792372e-15
    34   -5.185390917991e-04
    35    7.549129636684e-06
    36    4.053229045234e-04
    37   -4.310005230270e-16
    38    6.560597003383e-05
    39   -2.367308846829e-02
    40   -2.528890300546e-04
    41   -1.431737918115e-03
    42   -4.184129614400e-05
    43   -3.260848627571e-15
    44   -1.164758838967e-04
    45   -4.631236700917e-04
    46   -3.449216171501e-15
    47    2.769715747385e-04
    48    3.658085026536e-05
    49   -1.672421563212e-04
    50   -6.577277973066e-17
    51    1.975010205901e-04
    52    6.358702758819e-16
    53   -8.158301888433e-05
    54   -1.782259663905e-04
    55   -9.438544990276e-05
    56    6.374423957866e-17
    57    5.726865159219e-05
    58   -6.160416046299e-01
    59   -1.112858778010e-02
    60    4.106494558642e-03
    61    5.035199989358e-05
    62   -4.008333096079e-15
    63    4.109976252322e-05
    64    1.489580232405e-04
    65   -6.911614735149e-16
    66    4.246544796289e-04
    67   -2.979482823532e-04
    68   -1.079218426446e-04
    69   -2.332829376657e-16
    70    3.441104713665e-06
    71   -1.196031624746e-15
    72    3.478807689044e-04
    73   -6.992697524074e-04
    74    2.182900172327e-04
    75   -1.436103188379e-15
    76    2.027468249631e-04
    77   -6.557569131065e-01
    78   -1.203950499225e-02
    79    5.796593097966e-03
    80   -4.356984223317e-05
    81   -3.784899043851e-15
    82    1.241737870792e-05
    83    5.706440432258e-04
    84   -2.172791312459e-15
    85    1.629801549320e-03
    86   -4.549849215794e-04
    87    3.865766224670e-04
    88   -7.421891426059e-16
    89   -1.512677437925e-04
    90   -3.750962837962e-16
    91    5.417273476361e-04
    92   -6.131093031333e-04
    93   -3.478049854869e-04
    94   -2.104251786159e-16
    95    3.078212107208e-04
Sym=X
Ene= 2.000000
Spin=Alpha
Occup=1
     1    1.362077091658e-01
     2    2.223501437314e-03
     3   -3.448141663011e-04
     4   -1.299701267250e-04
     5    4.125283382701e-15
     6    4.667157556486e-05
     7    1.457179029117e-03
     8    2.615235133702e-15
     9   -2.564285415592e-04
    10    7.162992389928e-05
    11   -1.258848791912e-04
    12   -1.272214312487e-18
    13    6.327773114706e-05
    14   -7.516195791404e-16
    15   -8.448006991350e-06
    16    9.170748675812e-05
    17   -2.255336108978e-04
    18    2.632540821469e-16
    19    1.204423191455e-04
    20   -4.375729145522e-01
    21   -7.689067152148e-03
    22    7.503527289117e-04
    23    1.953127921449e-04
    24   -2.661816295747e-16
    25   -3.751199091572e-04
    26    7.279930889343e-04
    27    3.771481867955e-16
    28   -3.760360693328e-04
    29    8.001889289589e-06
    30    1.687705494917e-04
    31    3.575043445610e-16
    32   -9.709855279764e-05
    33   -6.442363644992e-16
    34    1.658636238853e-04
    35   -6.144583946844e-04
    36   -1.413079854812e-04
    37    4.335187892570e-16
    38    4.519226173887e-06
    39    2.905167021237e-01
    40    5.187006434910e-03
    41   -9.113287360688e-04
    42    9.017267752992e-05
    43    7.269799915823e-17
    44    2.081215068629e-04
    45    2.085948794253e-04
    46    1.623206445528e-15
    47    1.040049980422e-03
    48    5.502890648906e-05
    49    6.167262497772e-05
    50   -4.102219823525e-16
    51   -6.402932128045e-05
    52    3.485176705005e-16
    53   -1.518081871996e-04
    54    1.382420889914e-04
    55   -1.057749233304e-04
    56    1.228638551242e-16
    57   -7.177469956202e-05
    58    4.337366666990e-01
    59    8.058783120685e-03
    60   -4.985859223129e-03
    61   -4.119891631404e-06
    62   -3.138555599137e-15
    63    1.111126159271e-06
    64   -2.458757332232e-03
    65   -4.018837860659e-15
    66   -1.203994310438e-05
    67    2.017463204970e-04
    68    3.768804042241e-04
    69   -5.833501798188e-16
    70    3.848428656931e-04
    71    6.514728627844e-16
    72   -4.861580066119e-04
    73    1.137103047199e-04
    74   -1.469748051231e-04
    75    2.087080258089e-16
    76   -3.608414467700e-04
    77   -7.156856408060e-01
    78   -1.318180025237e-02
    79    7.205592660035e-03
    80   -9.688214530400e-06
    81   -4.362110317777e-15
    82   -1.268675337139e-05
    83   -2.401103552028e-03
    84   -2.015869304635e-15
    85    4.438118915881e-04
    86   -2.672709639854e-04
    87    4.019108553204e-04
    88    2.215877498901e-16
    89   -3.572830636095e-04
    90    3.109590088330e-16
    91    5.924903548172e-04
    92   -4.397123788090e-04
    93   -2.264017883060e-04
    94    6.098753517241e-16
    95    4.171358406763e-04
Sym=X
Ene= 1.985648
Spin=Alpha
Occup=1
     1    1.353807659082e-01
     2   -2.794537549664e-01
     3   -2.370979364506e-01
     4    2.169904208068e-13
     5    1.548932669255e-15
     6    8.067960242661e-03
     7    7.461652174723e-14
     8    2.438233963493e-15
     9    3.687362834956e-02
    10   -4.278022995721e-03
    11   -2.098700245908e-14
    12    7.807196763181e-16
    13   -9.728702930270e-03
    14   -2.314026648465e-16
    15   -1.259795388011e-01
    16   -2.234985217317e-02
    17    6.531912725933e-15
    18   -5.095167525246e-16
    19    2.002297183226e-02
    20    9.111281641267e-02
    21   -1.865590631961e-01
    22   -6.354345175585e-02
    23    4.306397718475e-02
    24   -2.577857165255e-16
    25   -5.557757453334e-03
    26   -2.460573820605e-02
    27   -5.450033771684e-16
    28   -1.433323395588e-02
    29   -6.906289870445e-03
    30    8.165357595994e-03
    31    6.303751463462e-16
    32   -9.344828782774e-03
    33   -9.981910971810e-16
    34   -7.133443894111e-02
    35    3.150696047040e-03
    36    1.027129593273e-02
    37    6.403503689603e-16
    38    3.770104111113e-03
    39    9.111281641337e-02
    40   -1.865590631970e-01
    41   -6.354345175646e-02
    42   -4.306397718464e-02
    43   -5.965344399514e-16
    44   -5.557757453234e-03
    45    2.460573820587e-02
    46   -1.857972008433e-15
    47   -1.433323395573e-02
    48   -6.906289870490e-03
    49   -8.165357595985e-03
    50    1.816343376772e-16
    51   -9.344828782795e-03
    52   -1.413465852855e-16
    53   -7.133443894162e-02
    54    3.150696046734e-03
    55   -1.027129593278e-02
    56   -3.151580335748e-16
    57    3.770104111146e-03
    58    7.403352665617e-02
    59   -1.493804471384e-01
    60   -1.053125887665e-01
    61   -1.772922890811e-02
    62   -3.742004398298e-15
    63   -3.351413485846e-02
    64   -2.636839908484e-03
    65   -1.391740390419e-15
    66   -1.262789696847e-02
    67   -4.709292239071e-03
    68    1.877416375166e-03
    69    3.221325603550e-16
    70   -6.349296332653e-03
    71   -6.475982940937e-16
    72   -5.418508773421e-02
    73   -5.278292105059e-03
    74   -4.487695131541e-03
    75    4.940665935610e-16
    76   -5.932534357772e-03
    77    7.403352665586e-02
    78   -1.493804471380e-01
    79   -1.053125887662e-01
    80    1.772922890838e-02
    81   -2.938441098593e-15
    82   -3.351413485824e-02
    83    2.636839908512e-03
    84   -1.809480856772e-15
    85   -1.262789696847e-02
    86   -4.709292239026e-03
    87   -1.877416375128e-03
    88   -1.456018195277e-16
    89   -6.349296332654e-03
    90    2.097209930016e-16
    91   -5.418508773396e-02
    92   -5.278292105018e-03
    93    4.487695131533e-03
    94   -7.922011950214e-16
    95   -5.932534357739e-03
Sym=X
Ene= 1.980959
Spin=Alpha
Occup=1
     1   -1.128846038482e-01
     2    2.424277325534e-01
     3    1.833467825779e-01
     4   -2.198078944915e-13
     5    7.080978715782e-15
     6    8.295122576239e-02
     7   -1.503643448286e-13
     8    4.397894028668e-15
     9    1.465291496012e-04
    10    1.497222276631e-04
    11    2.267952610328e-14
    12   -4.896002968373e-16
    13    4.057241351498e-03
    14    1.699298049912e-16
    15    1.684643977515e-01
    16    2.653375794405e-02
    17    6.397962202895e-16
    18    8.156365322553e-17
    19   -2.527769571141e-02
    20    3.341188295120e-04
    21   -6.452412604487e-03
    22   -6.149944720437e-03
    23   -1.876831489783e-02
    24    5.715830834360e-15
    25    1.075182292621e-01
    26   -6.702745343978e-03
    27    1.657753570420e-15
    28    3.554436835607e-02
    29   -5.998497597282e-03
    30   -1.860931772671e-02
    31    6.086940619041e-16
    32    3.901922997272e-03
    33    2.685553407205e-16
    34    1.456434037703e-02
    35    1.682251444294e-04
    36   -3.143344832723e-03
    37   -1.780846002350e-16
    38    4.370838577176e-04
    39    3.341188292130e-04
    40   -6.452412603704e-03
    41   -6.149944720076e-03
    42    1.876831489763e-02
    43    5.471103326358e-15
    44    1.075182292622e-01
    45    6.702745343838e-03
    46    3.930389506867e-15
    47    3.554436835604e-02
    48   -5.998497597266e-03
    49    1.860931772670e-02
    50   -6.549214905534e-16
    51    3.901922997285e-03
    52    1.667566582100e-15
    53    1.456434037760e-02
    54    1.682251445269e-04
    55    3.143344832776e-03
    56    3.675139307130e-16
    57    4.370838576938e-04
    58    1.133895580161e-01
    59   -2.273669521462e-01
    60   -1.315485550012e-01
    61   -1.120762326004e-02
    62    6.094905403573e-15
    63    5.119957232882e-02
    64   -1.418820158599e-02
    65    1.250985376059e-15
    66    9.418817939978e-03
    67    3.258324664169e-03
    68    1.011530316878e-03
    69   -2.875882947696e-16
    70   -1.252248428851e-02
    71   -6.257139209268e-16
    72   -1.508414503579e-01
    73   -4.021240162571e-02
    74   -1.089542407711e-02
    75   -4.794203014441e-16
    76   -1.301811525038e-02
    77    1.133895580163e-01
    78   -2.273669521464e-01
    79   -1.315485550013e-01
    80    1.120762325991e-02
    81    6.031279253806e-15
    82    5.119957232866e-02
    83    1.418820158602e-02
    84    7.180584748409e-15
    85    9.418817939824e-03
    86    3.258324664130e-03
    87   -1.011530316903e-03
    88    2.373737473788e-15
    89   -1.252248428850e-02
    90   -1.750776422363e-15
    91   -1.508414503580e-01
    92   -4.021240162578e-02
    93    1.089542407711e-02
    94    7.104173733218e-16
    95   -1.301811525040e-02
Sym=X
Ene= 1.978558
Spin=Alpha
Occup=1
     1   -4.715965847210e-13
     2    9.787064573025e-13
     3    9.291339735134e-13
     4    1.043284134019e-01
     5    4.415789908430e-15
     6    3.354574578667e-13
     7    5.373047031229e-02
     8    3.030396356886e-15
     9    1.062644693046e-14
    10    2.134524001659e-14
    11   -1.117738935126e-02
    12    2.696169211683e-17
    13    1.137814441505e-14
    14    4.988623162656e-16
    15    6.908758244663e-13
    16    6.161417045706e-14
    17    9.387113609679e-04
    18   -1.053794589124e-16
    19   -9.463263891659e-14
    20   -1.127912448977e-01
    21    2.381902463349e-01
    22    1.339393255719e-01
    23    7.469435758815e-02
    24    2.058409998426e-15
    25   -2.873421996911e-03
    26    1.184713372360e-02
    27   -2.000972780043e-15
    28   -1.487369618782e-02
    29    9.848205638419e-03
    30    1.654544490634e-03
    31    1.897502320891e-15
    32    4.699311036371e-03
    33    5.373048394413e-16
    34    1.752795977065e-01
    35    4.502048031080e-02
    36   -1.699158809897e-02
    37    5.213887800948e-16
    38   -7.707154076950e-03
    39    1.127912448977e-01
    40   -2.381902463348e-01
    41   -1.339393255722e-01
    42    7.469435758863e-02
    43    1.698356043640e-15
    44    2.873421997174e-03
    45    1.184713372357e-02
    46    5.146066471186e-15
    47    1.487369618793e-02
    48   -9.848205638391e-03
    49    1.654544490744e-03
    50   -1.339724741657e-15
    51   -4.699311036348e-03
    52    1.324437453008e-15
    53   -1.752795977067e-01
    54   -4.502048031088e-02
    55   -1.699158809896e-02
    56   -8.287291232396e-16
    57    7.707154076953e-03
    58    7.230812886783e-02
    59   -1.467419943078e-01
    60   -9.106964621160e-02
    61    9.521327666718e-02
    62   -2.298659870257e-16
    63   -8.260209449178e-03
    64    2.024710467805e-02
    65   -5.580434047627e-15
    66   -1.185630414038e-02
    67   -1.233332820805e-02
    68    5.643708332972e-03
    69   -1.215916725478e-15
    70    1.682566325315e-03
    71   -2.083670962769e-15
    72   -1.191668267689e-01
    73   -3.323725307013e-02
    74   -6.277456567613e-03
    75    7.596741081518e-16
    76   -1.104580386648e-02
    77   -7.230812886799e-02
    78    1.467419943078e-01
    79    9.106964621166e-02
    80    9.521327666709e-02
    81    1.632814457021e-15
    82    8.260209449121e-03
    83    2.024710467800e-02
    84    5.444658098822e-15
    85    1.185630414044e-02
    86    1.233332820806e-02
    87    5.643708332963e-03
    88    8.041612382417e-16
    89   -1.682566325324e-03
    90   -1.830616784284e-15
    91    1.191668267689e-01
    92    3.323725307031e-02
    93   -6.277456567616e-03
    94   -2.492907265106e-15
    95    1.104580386649e-02
Sym=X
Ene= 1.971642
Spin=Alpha
Occup=1
     1   -7.477384300092e-02
     2    1.686154920214e-01
     3    1.812075260235e-01
     4   -3.273103366730e-13
     5   -6.581166271919e-15
     6    1.450201409674e-01
     7   -1.312241255965e-13
     8   -5.784227700489e-15
     9    2.666481803868e-02
    10    1.002817915023e-02
    11    2.799385193153e-14
    12   -3.907162736525e-16
    13   -9.046960627578e-03
    14    6.818625450607e-16
    15    1.936057049880e-01
    16    4.130352459028e-02
    17   -1.951978044458e-15
    18    1.224957377167e-16
    19   -2.357862205745e-02
    20    8.645226049821e-02
    21   -1.986075134860e-01
    22   -1.737520322743e-01
    23   -1.556223730160e-01
    24    1.372213049351e-15
    25   -3.463957236578e-02
    26   -2.439480006453e-02
    27   -4.034572601769e-15
    28   -1.579519986567e-03
    29    7.100798705945e-03
    30   -1.464893636299e-02
    31   -5.187236137682e-17
    32   -4.753492971004e-03
    33    7.637126880932e-16
    34   -2.265300587159e-01
    35   -6.513365190924e-02
    36    1.773407024357e-02
    37    5.822669110173e-16
    38    7.247109360599e-03
    39    8.645226049778e-02
    40   -1.986075134849e-01
    41   -1.737520322734e-01
    42    1.556223730156e-01
    43    7.524476283489e-16
    44   -3.463957236545e-02
    45    2.439480006451e-02
    46   -2.305336038899e-15
    47   -1.579519986586e-03