[Molden Format]
[Atoms] (Angs)
  N      1    7      0.00000000     -0.00000000      1.11738466
  H      2    1      0.00000000     -0.00000000      2.12136066
  C      3    6      1.12201016     -0.00000000      0.33463977
  H      4    1      2.10556415     -0.00000000      0.76898420
  C      5    6     -1.12201016      0.00000000      0.33463977
  H      6    1     -2.10556415      0.00000000      0.76898420
  C      7    6     -0.70797599     -0.00000000     -0.98428136
  H      8    1     -1.35674211      0.00000000     -1.84266130
  C      9    6      0.70797599      0.00000000     -0.98428136
  H     10    1      1.35674211      0.00000000     -1.84266130
[GTO]
1    0
S    7    1.000000
   9.04600000E+03    7.00000000E-04 
   1.35700000E+03    5.38983000E-03 
   3.09300000E+02    2.74060000E-02 
   8.77300000E+01    1.03262320E-01 
   2.85600000E+01    2.78905240E-01 
   1.02100000E+01    4.50217400E-01 
   3.83800000E+00    2.79943000E-01 
S    7    1.000000
   9.04600000E+03    5.00000000E-08 
   1.35700000E+03   -2.97600000E-05 
   8.77300000E+01   -1.97900000E-03 
   2.85600000E+01   -6.51949000E-03 
   1.02100000E+01   -6.00100000E-02 
   3.83800000E+00   -6.09975300E-02 
   7.46600000E-01    5.52378750E-01 
S    1    1.000000
   2.24800000E-01    1.00000000E+00 
P    3    1.000000
   1.35500000E+01    3.99190000E-02 
   2.91700000E+00    2.17169000E-01 
   7.97300000E-01    5.10319000E-01 
P    1    1.000000
   2.18500000E-01    1.00000000E+00 
D    1    1.000000
   8.17000000E-01    1.00000000E+00 

2    0
S    3    1.000000
   1.30100000E+01    1.96850000E-02 
   1.96200000E+00    1.37977000E-01 
   4.44600000E-01    4.78148000E-01 
S    1    1.000000
   1.22000000E-01    1.00000000E+00 
P    1    1.000000
   7.27000000E-01    1.00000000E+00 

3    0
S    7    1.000000
   6.66500000E+03    6.91990000E-04 
   1.00000000E+03    5.32976000E-03 
   2.28000000E+02    2.70770000E-02 
   6.47100000E+01    1.01768130E-01 
   2.10600000E+01    2.74902850E-01 
   7.49500000E+00    4.50094590E-01 
   2.79700000E+00    2.86933450E-01 
S    7    1.000000
   6.66500000E+03    3.10000000E-07 
   1.00000000E+03   -2.72700000E-05 
   6.47100000E+01   -1.80535000E-03 
   2.10600000E+01   -5.86561000E-03 
   7.49500000E+00   -5.51393100E-02 
   2.79700000E+00   -6.69876600E-02 
   5.21500000E-01    5.47743760E-01 
S    1    1.000000
   1.59600000E-01    1.00000000E+00 
P    3    1.000000
   9.43900000E+00    3.81090000E-02 
   2.00200000E+00    2.09480000E-01 
   5.45600000E-01    5.08557000E-01 
P    1    1.000000
   1.51700000E-01    1.00000000E+00 
D    1    1.000000
   5.50000000E-01    1.00000000E+00 

4    0
S    3    1.000000
   1.30100000E+01    1.96850000E-02 
   1.96200000E+00    1.37977000E-01 
   4.44600000E-01    4.78148000E-01 
S    1    1.000000
   1.22000000E-01    1.00000000E+00 
P    1    1.000000
   7.27000000E-01    1.00000000E+00 

5    0
S    7    1.000000
   6.66500000E+03    6.91990000E-04 
   1.00000000E+03    5.32976000E-03 
   2.28000000E+02    2.70770000E-02 
   6.47100000E+01    1.01768130E-01 
   2.10600000E+01    2.74902850E-01 
   7.49500000E+00    4.50094590E-01 
   2.79700000E+00    2.86933450E-01 
S    7    1.000000
   6.66500000E+03    3.10000000E-07 
   1.00000000E+03   -2.72700000E-05 
   6.47100000E+01   -1.80535000E-03 
   2.10600000E+01   -5.86561000E-03 
   7.49500000E+00   -5.51393100E-02 
   2.79700000E+00   -6.69876600E-02 
   5.21500000E-01    5.47743760E-01 
S    1    1.000000
   1.59600000E-01    1.00000000E+00 
P    3    1.000000
   9.43900000E+00    3.81090000E-02 
   2.00200000E+00    2.09480000E-01 
   5.45600000E-01    5.08557000E-01 
P    1    1.000000
   1.51700000E-01    1.00000000E+00 
D    1    1.000000
   5.50000000E-01    1.00000000E+00 

6    0
S    3    1.000000
   1.30100000E+01    1.96850000E-02 
   1.96200000E+00    1.37977000E-01 
   4.44600000E-01    4.78148000E-01 
S    1    1.000000
   1.22000000E-01    1.00000000E+00 
P    1    1.000000
   7.27000000E-01    1.00000000E+00 

7    0
S    7    1.000000
   6.66500000E+03    6.91990000E-04 
   1.00000000E+03    5.32976000E-03 
   2.28000000E+02    2.70770000E-02 
   6.47100000E+01    1.01768130E-01 
   2.10600000E+01    2.74902850E-01 
   7.49500000E+00    4.50094590E-01 
   2.79700000E+00    2.86933450E-01 
S    7    1.000000
   6.66500000E+03    3.10000000E-07 
   1.00000000E+03   -2.72700000E-05 
   6.47100000E+01   -1.80535000E-03 
   2.10600000E+01   -5.86561000E-03 
   7.49500000E+00   -5.51393100E-02 
   2.79700000E+00   -6.69876600E-02 
   5.21500000E-01    5.47743760E-01 
S    1    1.000000
   1.59600000E-01    1.00000000E+00 
P    3    1.000000
   9.43900000E+00    3.81090000E-02 
   2.00200000E+00    2.09480000E-01 
   5.45600000E-01    5.08557000E-01 
P    1    1.000000
   1.51700000E-01    1.00000000E+00 
D    1    1.000000
   5.50000000E-01    1.00000000E+00 

8    0
S    3    1.000000
   1.30100000E+01    1.96850000E-02 
   1.96200000E+00    1.37977000E-01 
   4.44600000E-01    4.78148000E-01 
S    1    1.000000
   1.22000000E-01    1.00000000E+00 
P    1    1.000000
   7.27000000E-01    1.00000000E+00 

9    0
S    7    1.000000
   6.66500000E+03    6.91990000E-04 
   1.00000000E+03    5.32976000E-03 
   2.28000000E+02    2.70770000E-02 
   6.47100000E+01    1.01768130E-01 
   2.10600000E+01    2.74902850E-01 
   7.49500000E+00    4.50094590E-01 
   2.79700000E+00    2.86933450E-01 
S    7    1.000000
   6.66500000E+03    3.10000000E-07 
   1.00000000E+03   -2.72700000E-05 
   6.47100000E+01   -1.80535000E-03 
   2.10600000E+01   -5.86561000E-03 
   7.49500000E+00   -5.51393100E-02 
   2.79700000E+00   -6.69876600E-02 
   5.21500000E-01    5.47743760E-01 
S    1    1.000000
   1.59600000E-01    1.00000000E+00 
P    3    1.000000
   9.43900000E+00    3.81090000E-02 
   2.00200000E+00    2.09480000E-01 
   5.45600000E-01    5.08557000E-01 
P    1    1.000000
   1.51700000E-01    1.00000000E+00 
D    1    1.000000
   5.50000000E-01    1.00000000E+00 

10    0
S    3    1.000000
   1.30100000E+01    1.96850000E-02 
   1.96200000E+00    1.37977000E-01 
   4.44600000E-01    4.78148000E-01 
S    1    1.000000
   1.22000000E-01    1.00000000E+00 
P    1    1.000000
   7.27000000E-01    1.00000000E+00 

[MO]
Sym=X
Ene= 2.000000
Spin=Alpha
Occup=1
     1   -6.807589775314e-01
     2   -1.243070403685e-02
     3    8.487147568941e-03
     4   -9.186358991230e-05
     5   -2.420620127603e-14
     6    9.599726661948e-05
     7    5.699653008747e-04
     8   -1.677631685747e-14
     9   -3.388307867204e-03
    10   -9.504317550476e-05
    11   -1.498532105378e-04
    12   -1.973264435126e-16
    13    2.348141258881e-04
    14    3.470747488062e-16
    15    5.417106092902e-04
    16    2.917788086289e-04
    17   -7.979404738509e-05
    18    2.610455773468e-16
    19   -3.649876987877e-04
    20   -5.912480869270e-01
    21   -1.068856937595e-02
    22    4.285706500555e-04
    23    4.744585290454e-04
    24   -1.502002985545e-14
    25   -6.546503894874e-04
    26    2.418807316030e-03
    27   -6.932694365007e-15
    28   -5.331552049441e-04
    29   -5.023257869043e-06
    30   -4.312032626801e-04
    31   -1.494685972065e-15
    32   -6.190189913052e-04
    33    2.430666429565e-15
    34    5.296365543745e-04
    35   -1.348637835479e-03
    36   -5.318871129583e-04
    37   -7.469217925739e-16
    38   -1.769779623100e-05
    39   -2.540827931264e-02
    40   -2.929147522138e-04
    41   -5.343766158648e-03
    42   -1.455597925558e-04
    43   -1.273580249836e-14
    44   -1.941651728318e-04
    45   -3.544074471328e-03
    46   -9.236972462947e-15
    47    1.661529503342e-03
    48    6.512787872281e-05
    49    2.505381087913e-06
    50   -1.595648143958e-15
    51    1.554084631587e-05
    52   -2.044795220159e-15
    53   -1.576634452763e-04
    54   -1.268347037009e-03
    55    5.002016485599e-05
    56   -7.418062949264e-16
    57    2.367329415408e-05
    58   -4.234115693459e-01
    59   -7.859334275627e-03
    60    6.012103523230e-03
    61   -1.032265204574e-04
    62   -7.375912284735e-15
    63    9.086595892906e-05
    64    7.290018316236e-04
    65   -3.766888089177e-15
    66    2.274615984433e-03
    67   -2.011730725233e-04
    68   -4.102553788682e-04
    69   -2.044475924279e-15
    70   -2.928904422906e-04
    71    1.772111543701e-15
    72    5.289627561595e-04
    73    2.991961204037e-05
    74    2.154660333200e-04
    75    5.019618214206e-16
    76    2.358508863570e-04
    77    4.334546863798e-02
    78    1.088602142798e-03
    79   -1.250923965215e-03
    80    9.560462791813e-05
    81   -1.038249937535e-14
    82    1.478701928123e-04
    83   -3.729074700652e-04
    84   -5.812664327707e-15
    85   -7.802028225053e-05
    86    2.459319073600e-04
    87   -3.647705165986e-04
    88   -1.309224116099e-15
    89    2.436793659461e-04
    90    2.737652152694e-15
    91   -1.943955904318e-04
    92    6.278922908460e-05
    93    1.486686905015e-04
    94   -7.015303029301e-17
    95   -2.225674413219e-04
Sym=X
Ene= 2.000000
Spin=Alpha
Occup=1
     1   -6.329016219283e-01
     2   -1.103838522154e-02
     3    5.248405514698e-03
     4    1.217586771369e-04
     5    4.086224344687e-16
     6   -3.839597866987e-05
     7   -7.134106494358e-04
     8    7.477905664029e-16
     9   -1.328353002073e-03
    10   -2.048841509295e-04
    11    2.041834572251e-04
    12   -6.195190442809e-16
    13   -2.258874053371e-06
    14    5.700776147511e-16
    15    3.170503890130e-04
    16   -2.089845921476e-05
    17    9.848528190357e-05
    18    2.463353997925e-16
    19   -4.398550844822e-04
    20    3.656468485553e-01
    21    6.639713233948e-03
    22   -5.357797302530e-03
    23   -1.639916723695e-04
    24    1.377900038093e-15
    25    2.459806137621e-04
    26    1.953151959470e-03
    27    7.543306971724e-16
    28    1.217450538524e-03
    29    6.075112780852e-06
    30    1.045133024839e-04
    31   -1.003510131267e-15
    32    4.629919557266e-04
    33    4.857194591626e-16
    34   -4.062410898026e-04
    35   -2.090091775175e-04
    36    2.251111492360e-04
    37    2.541397435833e-16
    38    1.019403260966e-04
    39   -3.890149753487e-01
    40   -7.257321630008e-03
    41    2.713230463317e-03
    42   -2.835576160776e-04
    43    1.790915244128e-15
    44   -3.687692688099e-04
    45   -2.983504312198e-04
    46    2.406120545601e-16
    47   -1.800550489329e-03
    48   -9.027870599279e-05
    49    5.177603970060e-04
    50   -6.875611661053e-16
    51   -4.339293582905e-04
    52    8.087615877147e-16
    53    5.470193848273e-04
    54   -2.741453962335e-04
    55    4.416473053228e-04
    56    4.690163183285e-16
    57    3.839663044803e-05
    58    5.074557509430e-01
    59    9.597366959067e-03
    60   -6.168083892000e-03
    61   -5.124288926925e-05
    62    2.098500456173e-15
    63    1.173461800588e-04
    64   -6.918411781541e-05
    65    6.377231857080e-16
    66   -1.460467026876e-03
    67    3.881590801226e-04
    68    5.736063741591e-04
    69   -6.639413014500e-16
    70    3.603006828557e-04
    71    1.173246265141e-15
    72   -5.382063349945e-04
    73    3.491338029901e-04
    74   -3.147799223989e-04
    75    2.507646348237e-16
    76   -3.878959000759e-04
    77   -2.281033199790e-01
    78   -4.452310429057e-03
    79    4.909842123204e-03
    80    6.114979526771e-05
    81    1.774176090141e-15
    82    3.569011905107e-05
    83   -7.492652763050e-04
    84    3.276250414224e-15
    85    1.902242719975e-03
    86   -2.756051082988e-04
    87    5.747730839217e-04
    88    1.302201470351e-17
    89   -4.478608434600e-04
    90    5.509597648020e-17
    91    5.563390439146e-04
    92    2.668145616568e-04
    93   -2.252522916105e-04
    94    3.507429622702e-16
    95    3.118548524209e-04
Sym=X
Ene= 2.000000
Spin=Alpha
Occup=1
     1    3.011207342196e-01
     2    4.492937162271e-03
     3    9.478498962754e-04
     4   -5.539482494776e-06
     5    1.418564923353e-15
     6    1.628702489857e-04
     7    1.526335565515e-04
     8    9.087865323353e-16
     9   -1.688808294037e-03
    10    5.594428889541e-04
    11    6.615700606330e-06
    12    8.794304935319e-16
    13    4.077709048348e-04
    14   -1.429079771107e-15
    15   -9.923976300020e-05
    16    3.717353861578e-04
    17   -2.528120487234e-05
    18   -1.008234652468e-15
    19    5.190600073683e-04
    20   -6.099975996836e-01
    21   -1.094089896667e-02
    22    2.429016434825e-03
    23    3.685824712900e-04
    24    2.927135068749e-15
    25   -5.111892321416e-04
    26    1.232833118273e-03
    27    2.111997932142e-15
    28    1.110977701628e-04
    29    4.153678096175e-05
    30   -1.649230732563e-04
    31    1.259277432627e-15
    32   -7.792477390029e-04
    33   -1.562827744611e-15
    34    4.241667081166e-04
    35   -1.192852406874e-03
    36   -4.470572563704e-04
    37    7.777689856715e-16
    38   -1.755124263231e-04
    39   -5.890464420706e-01
    40   -1.064692683240e-02
    41    3.263084903381e-03
    42   -3.814321239576e-04
    43    2.753487265303e-15
    44   -4.958261570243e-04
    45   -8.411700180837e-04
    46    2.259708716842e-15
    47   -6.349318313262e-05
    48    3.627653617896e-05
    49    2.911714638804e-04
    50   -2.007878341510e-16
    51   -8.981243009655e-04
    52   -3.504470947012e-16
    53    5.017033062660e-04
    54   -1.071869166392e-03
    55    4.969909247169e-04
    56   -8.620889595747e-18
    57   -1.975191359896e-04
    58    4.150312529665e-01
    59    7.680050245082e-03
    60   -3.530116300964e-03
    61   -8.460688151102e-05
    62    5.366940222856e-15
    63   -4.153573963077e-06
    64   -1.164274390440e-04
    65    1.984326291571e-15
    66   -4.643661228026e-04
    67    4.571521574232e-04
    68    4.070147375623e-04
    69   -1.450770363998e-16
    70    2.494652405924e-04
    71    1.042260872685e-15
    72   -4.920330914420e-04
    73    3.531862943742e-04
    74   -2.812225177924e-04
    75    1.129716168370e-15
    76   -3.399470324673e-04
    77    1.142903572366e-01
    78    2.059068712549e-03
    79    1.148023432493e-04
    80    8.359763807232e-05
    81    4.857441475436e-15
    82   -1.787986106552e-05
    83   -8.368164849423e-04
    84    3.603384734773e-15
    85    8.149020372482e-05
    86    2.839260518692e-04
    87   -1.129574475080e-04
    88    1.847294439101e-15
    89    9.000916070253e-06
    90    8.779550798504e-17
    91   -1.536525997121e-04
    92    2.461461523445e-04
    93    1.417059525501e-04
    94    1.853583098990e-15
    95   -1.083483850066e-04
Sym=X
Ene= 2.000000
Spin=Alpha
Occup=1
     1    1.757569521930e-01
     2    2.594688748785e-03
     3    1.023977595245e-03
     4    1.488710073260e-04
     5   -5.624202621964e-15
     6    1.348239835766e-04
     7   -1.283492622784e-03
     8   -3.326554137391e-15
     9   -1.352794502956e-03
    10    1.055832915484e-04
    11    1.952246534098e-04
    12    5.726817305036e-16
    13    1.844434182297e-04
    14   -2.086833294903e-16
    15    1.247463639837e-04
    16    2.839581978109e-04
    17    1.915914643370e-04
    18   -1.085997393858e-15
    19    1.815429609221e-04
    20    2.317626461263e-01
    21    4.416924662247e-03
    22   -4.096001771481e-03
    23   -3.953251676023e-05
    24   -1.428944549835e-15
    25    7.764238993460e-05
    26    1.558531501817e-03
    27   -8.654566918283e-16
    28    2.389822979248e-03
    29    1.340756838798e-04
    30    2.432990720781e-04
    31   -6.565465450106e-17
    32    8.156297899965e-05
    33    7.494211594576e-16
    34   -3.702411675245e-04
    35   -6.115035639903e-04
    36    2.091170867996e-04
    37   -1.099736670005e-17
    38   -7.374242001075e-05
    39   -6.451485312494e-01
    40   -1.141705424620e-02
    41    1.661687082554e-03
    42   -3.940304314777e-04
    43   -1.231957362215e-15
    44   -6.308620544343e-04
    45   -1.133076935515e-03
    46   -2.406689811879e-15
    47   -2.329436219656e-04
    48    4.926645567949e-05
    49   -1.133864763585e-05
    50   -1.721563357086e-16
    51   -4.686700311657e-04
    52   -8.562741424815e-17
    53    3.815641636930e-04
    54   -1.094988905056e-03
    55    3.314451335379e-04
    56   -8.637791643095e-17
    57   -6.623970673110e-05
    58   -6.037367313189e-01
    59   -1.086353946402e-02
    60    4.289843880807e-03
    61    1.052611833217e-06
    62    1.291054729019e-15
    63    3.502177713455e-05
    64    1.203277774447e-03
    65    2.755019464067e-15
    66    5.149319891036e-05
    67   -7.811860790620e-05
    68    3.425723005913e-05
    69   -1.422507807012e-17
    70    3.562675758658e-05
    71   -8.830010725221e-16
    72    2.298750014116e-04
    73   -6.286249436191e-04
    74    9.921198399396e-05
    75   -7.959235130212e-16
    76    1.337564872745e-04
    77   -3.594864006697e-01
    78   -6.620357398019e-03
    79    3.637593439771e-03
    80    1.297146800324e-05
    81    2.125249300920e-15
    82   -5.135582630982e-06
    83    1.185290544367e-03
    84    1.243482177294e-15
    85    1.771650949328e-03
    86   -1.935988754156e-04
    87    1.848395574712e-04
    88    6.642011899654e-16
    89   -3.846126458206e-06
    90   -5.405437791947e-16
    91    2.398642098051e-04
    92   -3.501847592101e-04
    93   -1.980196544424e-04
    94    8.875061812413e-16
    95    8.789265940944e-05
Sym=X
Ene= 2.000000
Spin=Alpha
Occup=1
     1   -9.631596741795e-02
     2   -1.538458702105e-03
     3   -6.344322387146e-05
     4    1.035421337604e-04
     5   -1.744635199667e-15
     6   -5.481312808382e-05
     7   -1.205530758621e-03
     8   -1.275991913022e-15
     9    4.105877928650e-04
    10    3.473126236579e-05
    11    9.437782833298e-05
    12    6.729209543912e-17
    13   -3.238808647818e-05
    14    1.094137147900e-16
    15   -7.688665654918e-05
    16   -1.049379929031e-04
    17    1.874025336397e-04
    18   -2.130163883369e-16
    19   -3.982984078090e-05
    20    2.928270577747e-01
    21    5.012637821332e-03
    22    8.380565078332e-04
    23   -1.375877608272e-04
    24    2.366764346946e-15
    25    2.964050132516e-04
    26   -1.017960739268e-03
    27    7.572128161114e-16
    28   -1.997660882040e-04
    29   -3.660924798009e-05
    30   -2.651836146669e-04
    31    2.173292961517e-17
    32   -6.786894935502e-05
    33    2.864442612982e-17
    34   -5.213341393833e-06
    35    6.111219651633e-04
    36    1.537485566228e-05
    37   -2.545811826454e-16
    38   -2.422509526837e-05
    39   -2.822410843317e-01
    40   -5.119535507031e-03
    41    1.715509092592e-03
    42   -7.750737630151e-05
    43    1.910036452389e-15
    44   -1.635570262033e-04
    45    9.831701556277e-05
    46    1.613307810352e-17
    47   -1.212017694735e-03
    48   -7.049052603585e-05
    49    2.417023476942e-05
    50    2.462685784821e-16
    51   -3.488196139821e-05
    52   -2.000424562001e-16
    53    2.029394296587e-04
    54   -3.237685259098e-05
    55    1.516418414818e-04
    56   -3.691117487133e-17
    57    4.580632820354e-05
    58   -1.461764557832e-01
    59   -2.822911333997e-03
    60    2.688581426633e-03
    61   -1.244643982080e-05
    62    6.059996000825e-15
    63   -1.488642667484e-05
    64    2.215129835246e-03
    65    4.699506727943e-15
    66   -2.948008538314e-04
    67   -5.578004676636e-05
    68   -2.718827703446e-04
    69    5.793333416474e-16
    70   -3.333965264384e-04
    71   -4.682942731123e-18
    72    2.845654466542e-04
    73    1.576314764260e-04
    74    3.649175668505e-05
    75    4.552086173374e-16
    76    2.381019512771e-04
    77    8.937015843492e-01
    78    1.642467834801e-02
    79   -8.565452313227e-03
    80    2.365434567581e-05
    81    6.903808809863e-15
    82    2.586321834945e-06
    83    2.024556522120e-03
    84    4.230244597720e-15
    85   -9.176243963975e-04
    86    3.934525331883e-04
    87   -4.772230807960e-04
    88    2.301999650576e-16
    89    3.608351861276e-04
    90   -1.611659156652e-16
    91   -7.189836515785e-04
    92    6.396853638090e-04
    93    3.219308104139e-04
    94   -4.776202442258e-16
    95   -4.795643698546e-04
Sym=X
Ene= 1.985635
Spin=Alpha
Occup=1
     1    1.374179824378e-01
     2   -2.836305292599e-01
     3   -2.437639401274e-01
     4    1.983291100319e-13
     5    2.022489596145e-15
     6   -5.353448139184e-04
     7    6.768220648202e-14
     8    2.629855005099e-15
     9    3.608804042036e-02
    10   -3.698657531319e-03
    11   -2.143600843863e-14
    12    8.734430867701e-16
    13   -9.816692709744e-03
    14   -2.067556789781e-16
    15   -1.295892280588e-01
    16   -2.413179636645e-02
    17    5.238354316022e-15
    18   -3.993407357350e-16
    19    2.074182242649e-02
    20    9.077064925659e-02
    21   -1.855610788169e-01
    22   -6.033170584407e-02
    23    4.097203006742e-02
    24   -8.909929410330e-16
    25   -7.415588338540e-03
    26   -2.451347558313e-02
    27   -7.692474682713e-16
    28   -1.179330548366e-02
    29   -7.080253791071e-03
    30    8.873739728692e-03
    31    1.103397118470e-15
    32   -9.074719730096e-03
    33   -8.888340216400e-16
    34   -7.342991109568e-02
    35   -1.234296244698e-03
    36    1.044729771522e-02
    37    8.105179149835e-16
    38    4.171910066823e-03
    39    9.077064925736e-02
    40   -1.855610788179e-01
    41   -6.033170584476e-02
    42   -4.097203006723e-02
    43   -7.033503766188e-16
    44   -7.415588338422e-03
    45    2.451347558303e-02
    46   -1.272151307130e-15
    47   -1.179330548350e-02
    48   -7.080253791116e-03
    49   -8.873739728680e-03
    50    2.458237705857e-16
    51   -9.074719730118e-03
    52   -1.418916762003e-16
    53   -7.342991109627e-02
    54   -1.234296244933e-03
    55   -1.044729771528e-02
    56   -2.721627698287e-16
    57    4.171910066861e-03
    58    7.203289967034e-02
    59   -1.459200367949e-01
    60   -9.942236213993e-02
    61   -1.697823044922e-02
    62   -4.866826717718e-15
    63   -3.460766380512e-02
    64   -2.754127122999e-03
    65   -2.240294286531e-15
    66   -1.279301733498e-02
    67   -4.589418832324e-03
    68    2.076280309814e-03
    69    1.361439422164e-16
    70   -6.077703875632e-03
    71   -7.391189706494e-16
    72   -5.275130420109e-02
    73   -7.853744618207e-03
    74   -4.323733493403e-03
    75    5.969432211478e-16
    76   -5.816023354588e-03
    77    7.203289967003e-02
    78   -1.459200367944e-01
    79   -9.942236213965e-02
    80    1.697823044951e-02
    81   -3.926875593538e-15
    82   -3.460766380487e-02
    83    2.754127123026e-03
    84   -2.553446503318e-15
    85   -1.279301733499e-02
    86   -4.589418832277e-03
    87   -2.076280309774e-03
    88    1.162581992213e-17
    89   -6.077703875632e-03
    90    7.378408753322e-17
    91   -5.275130420083e-02
    92   -7.853744618186e-03
    93    4.323733493395e-03
    94   -1.045333927045e-15
    95   -5.816023354554e-03
Sym=X
Ene= 1.981319
Spin=Alpha
Occup=1
     1   -1.121975980805e-01
     2    2.414612594914e-01
     3    1.869879213466e-01
     4   -1.890214284308e-13
     5    5.771022243137e-15
     6    9.905097617985e-02
     7   -1.359188212127e-13
     8    2.853374602492e-15
     9    4.958735625147e-03
    10   -9.346339932882e-04
    11    1.989180656651e-14
    12   -5.634201956171e-16
    13    3.869070510777e-03
    14    1.326017407216e-16
    15    1.731566816304e-01
    16    2.796419450591e-02
    17    1.708889270348e-15
    18    2.400447788137e-16
    19   -2.612842735619e-02
    20    4.593478933968e-03
    21   -1.540728638037e-02
    22   -1.653595596253e-02
    23   -1.405232895711e-02
    24    6.354692450823e-15
    25    1.092647745917e-01
    26   -6.276055352778e-03
    27    1.866325480327e-15
    28    3.469213600004e-02
    29   -5.133859432672e-03
    30   -1.896559680452e-02
    31    4.477880677420e-16
    32    2.621715459407e-03
    33    2.012153012068e-16
    34    1.319595852058e-02
    35    4.895928882916e-03
    36   -2.996072440823e-03
    37   -8.196509435894e-17
    38    2.334205462235e-04
    39    4.593478933691e-03
    40   -1.540728637963e-02
    41   -1.653595596212e-02
    42    1.405232895684e-02
    43    5.744604572615e-15
    44    1.092647745919e-01
    45    6.276055352584e-03
    46    3.526576726686e-15
    47    3.469213600002e-02
    48   -5.133859432661e-03
    49    1.896559680451e-02
    50   -6.436307325833e-16
    51    2.621715459423e-03
    52    1.581399571938e-15
    53    1.319595852118e-02
    54    4.895928882953e-03
    55    2.996072440875e-03
    56    3.432316401501e-16
    57    2.334205461982e-04
    58    1.137188364426e-01
    59   -2.278214291025e-01
    60   -1.333263680332e-01
    61   -1.364253311374e-02
    62    7.790159295409e-15
    63    4.181979127571e-02
    64   -1.309230658434e-02
    65    2.122077103779e-15
    66    9.782331655900e-03
    67    2.664738409599e-03
    68    9.936690070806e-04
    69   -6.985239407272e-17
    70   -1.269449739565e-02
    71   -5.663017934858e-16
    72   -1.460344516868e-01
    73   -3.355806648136e-02
    74   -1.050379775265e-02
    75   -5.812779864780e-16
    76   -1.246407768071e-02
    77    1.137188364428e-01
    78   -2.278214291027e-01
    79   -1.333263680332e-01
    80    1.364253311364e-02
    81    7.846808243670e-15
    82    4.181979127555e-02
    83    1.309230658435e-02
    84    8.175970362897e-15
    85    9.782331655789e-03
    86    2.664738409566e-03
    87   -9.936690071062e-04
    88    2.352298298926e-15
    89   -1.269449739564e-02
    90   -1.811720635538e-15
    91   -1.460344516868e-01
    92   -3.355806648138e-02
    93    1.050379775265e-02
    94    5.919698133437e-16
    95   -1.246407768072e-02
Sym=X
Ene= 1.978702
Spin=Alpha
Occup=1
     1   -4.643969956498e-13
     2    1.002437485084e-12
     3    9.544168986036e-13
     4    9.080678250325e-02
     5    3.074385773406e-15
     6    3.705657114172e-13
     7    4.743485328450e-02
     8    2.168342834951e-15
     9    2.170886042860e-14
    10    1.687210828361e-14
    11   -1.042644634887e-02
    12    3.704014782327e-17
    13    1.329098796877e-14
    14    7.638228152305e-16
    15    7.004909136029e-13
    16    6.351616859501e-14
    17    3.603005408897e-04
    18   -1.740751083695e-16
    19   -9.781626218192e-14
    20   -1.128224104599e-01
    21    2.376306466257e-01
    22    1.405469660980e-01
    23    8.597916418704e-02
    24    1.001478735683e-15
    25   -6.831314052690e-03
    26    1.467444131411e-02
    27   -3.690923257759e-15
    28   -2.196523699433e-02
    29    9.018786202688e-03
    30    2.213158032578e-03
    31    2.553795834733e-15
    32    5.039983689776e-03
    33    4.771090293395e-16
    34    1.831840486924e-01
    35    4.776943579727e-02
    36   -1.712397752536e-02
    37    1.401452836881e-15
    38   -8.489254320733e-03
    39    1.128224104599e-01
    40   -2.376306466256e-01
    41   -1.405469660983e-01
    42    8.597916418748e-02
    43    1.198008373900e-15
    44    6.831314052979e-03
    45    1.467444131407e-02
    46    6.145838073680e-15
    47    2.196523699445e-02
    48   -9.018786202652e-03
    49    2.213158032691e-03
    50   -1.917365682238e-15
    51   -5.039983689757e-03
    52    1.157475361745e-15
    53   -1.831840486925e-01
    54   -4.776943579730e-02
    55   -1.712397752534e-02
    56   -1.796248198882e-15
    57    8.489254320733e-03
    58    7.061385298116e-02
    59   -1.437100241172e-01
    60   -7.897610115444e-02
    61    9.357746470282e-02
    62   -1.294700844945e-15
    63   -1.300470566956e-02
    64    2.166717193679e-02
    65   -8.139378810577e-15
    66   -7.450266971532e-03
    67   -1.193220404702e-02
    68    6.467677365856e-03
    69   -1.547247994133e-15
    70    1.319355355551e-03
    71   -2.898459478526e-15
    72   -1.140188339575e-01
    73   -2.863900147446e-02
    74   -5.967840117062e-03
    75    2.075105755167e-15
    76   -1.071693498209e-02
    77   -7.061385298136e-02
    78    1.437100241173e-01
    79    7.897610115451e-02
    80    9.357746470271e-02
    81    1.239925154455e-15
    82    1.300470566945e-02
    83    2.166717193671e-02
    84    7.182829007466e-15
    85    7.450266971591e-03
    86    1.193220404701e-02
    87    6.467677365849e-03
    88    7.704848682738e-16
    89   -1.319355355556e-03
    90   -2.488358267944e-15
    91    1.140188339576e-01
    92    2.863900147471e-02
    93   -5.967840117070e-03
    94   -4.067683696812e-15
    95    1.071693498211e-02
Sym=X
Ene= 1.971762
Spin=Alpha
Occup=1
     1   -7.327277768444e-02
     2    1.654340279162e-01
     3    1.734249070284e-01
     4   -2.780334846665e-13
     5   -7.740527640595e-15
     6    1.311138293414e-01
     7   -1.137528971816e-13
     8   -6.566296102906e-15
     9    2.195893198400e-02
    10    8.708444014727e-03
    11    2.544405369953e-14
    12   -3.095914226702e-16
    13   -8.305247143224e-03
    14    7.354302983568e-16
    15    1.763138054110e-01
    16    4.080100584980e-02
    17    5.510807515634e-16
    18    1.688436652812e-16
    19   -2.217681246898e-02
    20    8.623896202320e-02
    21   -1.971614310382e-01
    22   -1.751827311845e-01
    23   -1.594562849981e-01
    24    6.852296336358e-16
    25   -2.761446641657e-02
    26   -2.773264919927e-02
    27   -4.373479967709e-15
    28    5.536937576950e-03
    29    7.360789900197e-03
    30   -1.484581421403e-02
    31    1.259240541606e-16
    32   -4.883905932590e-03
    33    8.288597939334e-16
    34   -2.274826380022e-01
    35   -6.249366234701e-02
    36    1.731455622431e-02
    37    9.515461432234e-16
    38    8.101504290601e-03
    39    8.623896202276e-02
    40   -1.971614310371e-01
    41   -1.751827311836e-01
    42    1.594562849976e-01
    43    3.036416198941e-16
    44   -2.761446641622e-02
    45    2.773264919922e-02
    46   -2.239413666589e-15
    47    5.536937576873e-03