[Molden Format]
[Atoms] (Angs)
  N      1    7      0.00000000     -0.00000000      1.11738466
  H      2    1      0.00000000     -0.00000000      2.12136066
  C      3    6      1.12201016     -0.00000000      0.33463977
  H      4    1      2.10556415     -0.00000000      0.76898420
  C      5    6     -1.12201016      0.00000000      0.33463977
  H      6    1     -2.10556415      0.00000000      0.76898420
  C      7    6     -0.70797599     -0.00000000     -0.98428136
  H      8    1     -1.35674211      0.00000000     -1.84266130
  C      9    6      0.70797599      0.00000000     -0.98428136
  H     10    1      1.35674211      0.00000000     -1.84266130
[GTO]
1    0
S    7    1.000000
   9.04600000E+03    7.00000000E-04 
   1.35700000E+03    5.38983000E-03 
   3.09300000E+02    2.74060000E-02 
   8.77300000E+01    1.03262320E-01 
   2.85600000E+01    2.78905240E-01 
   1.02100000E+01    4.50217400E-01 
   3.83800000E+00    2.79943000E-01 
S    7    1.000000
   9.04600000E+03    5.00000000E-08 
   1.35700000E+03   -2.97600000E-05 
   8.77300000E+01   -1.97900000E-03 
   2.85600000E+01   -6.51949000E-03 
   1.02100000E+01   -6.00100000E-02 
   3.83800000E+00   -6.09975300E-02 
   7.46600000E-01    5.52378750E-01 
S    1    1.000000
   2.24800000E-01    1.00000000E+00 
P    3    1.000000
   1.35500000E+01    3.99190000E-02 
   2.91700000E+00    2.17169000E-01 
   7.97300000E-01    5.10319000E-01 
P    1    1.000000
   2.18500000E-01    1.00000000E+00 
D    1    1.000000
   8.17000000E-01    1.00000000E+00 

2    0
S    3    1.000000
   1.30100000E+01    1.96850000E-02 
   1.96200000E+00    1.37977000E-01 
   4.44600000E-01    4.78148000E-01 
S    1    1.000000
   1.22000000E-01    1.00000000E+00 
P    1    1.000000
   7.27000000E-01    1.00000000E+00 

3    0
S    7    1.000000
   6.66500000E+03    6.91990000E-04 
   1.00000000E+03    5.32976000E-03 
   2.28000000E+02    2.70770000E-02 
   6.47100000E+01    1.01768130E-01 
   2.10600000E+01    2.74902850E-01 
   7.49500000E+00    4.50094590E-01 
   2.79700000E+00    2.86933450E-01 
S    7    1.000000
   6.66500000E+03    3.10000000E-07 
   1.00000000E+03   -2.72700000E-05 
   6.47100000E+01   -1.80535000E-03 
   2.10600000E+01   -5.86561000E-03 
   7.49500000E+00   -5.51393100E-02 
   2.79700000E+00   -6.69876600E-02 
   5.21500000E-01    5.47743760E-01 
S    1    1.000000
   1.59600000E-01    1.00000000E+00 
P    3    1.000000
   9.43900000E+00    3.81090000E-02 
   2.00200000E+00    2.09480000E-01 
   5.45600000E-01    5.08557000E-01 
P    1    1.000000
   1.51700000E-01    1.00000000E+00 
D    1    1.000000
   5.50000000E-01    1.00000000E+00 

4    0
S    3    1.000000
   1.30100000E+01    1.96850000E-02 
   1.96200000E+00    1.37977000E-01 
   4.44600000E-01    4.78148000E-01 
S    1    1.000000
   1.22000000E-01    1.00000000E+00 
P    1    1.000000
   7.27000000E-01    1.00000000E+00 

5    0
S    7    1.000000
   6.66500000E+03    6.91990000E-04 
   1.00000000E+03    5.32976000E-03 
   2.28000000E+02    2.70770000E-02 
   6.47100000E+01    1.01768130E-01 
   2.10600000E+01    2.74902850E-01 
   7.49500000E+00    4.50094590E-01 
   2.79700000E+00    2.86933450E-01 
S    7    1.000000
   6.66500000E+03    3.10000000E-07 
   1.00000000E+03   -2.72700000E-05 
   6.47100000E+01   -1.80535000E-03 
   2.10600000E+01   -5.86561000E-03 
   7.49500000E+00   -5.51393100E-02 
   2.79700000E+00   -6.69876600E-02 
   5.21500000E-01    5.47743760E-01 
S    1    1.000000
   1.59600000E-01    1.00000000E+00 
P    3    1.000000
   9.43900000E+00    3.81090000E-02 
   2.00200000E+00    2.09480000E-01 
   5.45600000E-01    5.08557000E-01 
P    1    1.000000
   1.51700000E-01    1.00000000E+00 
D    1    1.000000
   5.50000000E-01    1.00000000E+00 

6    0
S    3    1.000000
   1.30100000E+01    1.96850000E-02 
   1.96200000E+00    1.37977000E-01 
   4.44600000E-01    4.78148000E-01 
S    1    1.000000
   1.22000000E-01    1.00000000E+00 
P    1    1.000000
   7.27000000E-01    1.00000000E+00 

7    0
S    7    1.000000
   6.66500000E+03    6.91990000E-04 
   1.00000000E+03    5.32976000E-03 
   2.28000000E+02    2.70770000E-02 
   6.47100000E+01    1.01768130E-01 
   2.10600000E+01    2.74902850E-01 
   7.49500000E+00    4.50094590E-01 
   2.79700000E+00    2.86933450E-01 
S    7    1.000000
   6.66500000E+03    3.10000000E-07 
   1.00000000E+03   -2.72700000E-05 
   6.47100000E+01   -1.80535000E-03 
   2.10600000E+01   -5.86561000E-03 
   7.49500000E+00   -5.51393100E-02 
   2.79700000E+00   -6.69876600E-02 
   5.21500000E-01    5.47743760E-01 
S    1    1.000000
   1.59600000E-01    1.00000000E+00 
P    3    1.000000
   9.43900000E+00    3.81090000E-02 
   2.00200000E+00    2.09480000E-01 
   5.45600000E-01    5.08557000E-01 
P    1    1.000000
   1.51700000E-01    1.00000000E+00 
D    1    1.000000
   5.50000000E-01    1.00000000E+00 

8    0
S    3    1.000000
   1.30100000E+01    1.96850000E-02 
   1.96200000E+00    1.37977000E-01 
   4.44600000E-01    4.78148000E-01 
S    1    1.000000
   1.22000000E-01    1.00000000E+00 
P    1    1.000000
   7.27000000E-01    1.00000000E+00 

9    0
S    7    1.000000
   6.66500000E+03    6.91990000E-04 
   1.00000000E+03    5.32976000E-03 
   2.28000000E+02    2.70770000E-02 
   6.47100000E+01    1.01768130E-01 
   2.10600000E+01    2.74902850E-01 
   7.49500000E+00    4.50094590E-01 
   2.79700000E+00    2.86933450E-01 
S    7    1.000000
   6.66500000E+03    3.10000000E-07 
   1.00000000E+03   -2.72700000E-05 
   6.47100000E+01   -1.80535000E-03 
   2.10600000E+01   -5.86561000E-03 
   7.49500000E+00   -5.51393100E-02 
   2.79700000E+00   -6.69876600E-02 
   5.21500000E-01    5.47743760E-01 
S    1    1.000000
   1.59600000E-01    1.00000000E+00 
P    3    1.000000
   9.43900000E+00    3.81090000E-02 
   2.00200000E+00    2.09480000E-01 
   5.45600000E-01    5.08557000E-01 
P    1    1.000000
   1.51700000E-01    1.00000000E+00 
D    1    1.000000
   5.50000000E-01    1.00000000E+00 

10    0
S    3    1.000000
   1.30100000E+01    1.96850000E-02 
   1.96200000E+00    1.37977000E-01 
   4.44600000E-01    4.78148000E-01 
S    1    1.000000
   1.22000000E-01    1.00000000E+00 
P    1    1.000000
   7.27000000E-01    1.00000000E+00 

[MO]
Sym=X
Ene= 2.000000
Spin=Alpha
Occup=1
     1    5.611535935154e-01
     2    1.051283303829e-02
     3   -8.291824559520e-03
     4    8.153770628492e-05
     5    2.677111780223e-14
     6   -1.386117091018e-04
     7   -4.875584973904e-04
     8    1.774497207557e-14
     9    3.678686800194e-03
    10   -2.315860318888e-05
    11    1.354363131293e-04
    12    1.305175682713e-16
    13   -3.187755332741e-04
    14   -2.059232140700e-17
    15   -5.106222090380e-04
    16   -3.810680471015e-04
    17    6.765046459807e-05
    18    4.948901285194e-16
    19    2.259908109859e-04
    20    6.764288180481e-01
    21    1.218823022012e-02
    22   -6.522301577013e-04
    23   -5.311845251606e-04
    24    1.667769520143e-14
    25    7.326365586181e-04
    26   -2.647855551487e-03
    27    8.732102741789e-15
    28    3.011537770539e-04
    29   -1.689063238867e-05
    30    4.259686025277e-04
    31    7.999393356589e-16
    32    7.511953631229e-04
    33   -2.195610391981e-15
    34   -5.697362536533e-04
    35    1.579964762066e-03
    36    5.840147976467e-04
    37    6.377315394089e-16
    38    6.018603631700e-05
    39    1.721496473209e-01
    40    2.909469153271e-03
    41    4.654594671828e-03
    42    2.341871443992e-04
    43    1.298328829094e-14
    44    3.219882682471e-04
    45    3.717898643779e-03
    46    1.006769558440e-14
    47   -1.694436937839e-03
    48   -8.062822049501e-05
    49   -2.187106237607e-05
    50    1.194284833147e-15
    51    1.635937979862e-04
    52    2.095501354618e-15
    53    5.875952135277e-05
    54    1.526710002773e-03
    55   -1.440621529842e-04
    56    7.278853238890e-16
    57    1.966561434878e-05
    58    4.380658833062e-01
    59    8.105945140046e-03
    60   -6.078944156948e-03
    61    1.121568423343e-04
    62    6.750136905815e-15
    63   -8.587128156412e-05
    64   -8.147724942925e-04
    65    2.915503462193e-15
    66   -2.233594211277e-03
    67    1.494379070278e-04
    68    3.582198824453e-04
    69    2.098345431366e-15
    70    2.577033790943e-04
    71   -1.793242008910e-15
    72   -4.874782573780e-04
    73    1.497514866598e-06
    74   -1.913949520530e-04
    75   -4.099681016853e-16
    76   -2.077975310448e-04
    77   -2.722861730236e-02
    78   -7.915678653660e-04
    79    1.000851540147e-03
    80   -1.054769211521e-04
    81    1.097980493512e-14
    82   -1.391296922794e-04
    83    3.475477744575e-04
    84    6.175630884595e-15
    85   -3.875431342809e-05
    86   -2.784550242771e-04
    87    3.825389185698e-04
    88    1.077580963726e-15
    89   -2.608619053743e-04
    90   -2.478188443002e-15
    91    2.138110448351e-04
    92   -4.458433811736e-05
    93   -1.568504671670e-04
    94   -1.201715089711e-16
    95    2.392951593886e-04
Sym=X
Ene= 2.000000
Spin=Alpha
Occup=1
     1    6.437432964620e-01
     2    1.128998322017e-02
     3   -5.601201280054e-03
     4   -1.088474197937e-04
     5   -2.002154479578e-15
     6    2.922909218104e-05
     7    6.177532288346e-04
     8   -2.131279708416e-15
     9    1.525191694303e-03
    10    1.559502367671e-04
    11   -1.851798614018e-04
    12    5.601773555405e-16
    13   -3.534244613628e-05
    14   -1.321277340544e-16
    15   -3.157925610243e-04
    16   -5.290906797807e-06
    17   -8.457895505481e-05
    18   -2.294958182375e-16
    19    4.138403496036e-04
    20   -2.667027994780e-01
    21   -4.830936209960e-03
    22    4.690833823135e-03
    23    1.053594896930e-04
    24   -1.962863235555e-15
    25   -1.672810273781e-04
    26   -2.011770474623e-03
    27   -1.057844728238e-15
    28   -1.004267671901e-03
    29    1.528534036446e-06
    30   -3.748449231528e-05
    31    5.503403326189e-16
    32   -3.407166604271e-04
    33   -4.141513799533e-17
    34    3.065618029684e-04
    35    3.202855999813e-04
    36   -1.373350162967e-04
    37   -3.886173424552e-16
    38   -8.654143795470e-05
    39    4.101628896223e-01
    40    7.648779520785e-03
    41   -2.724336465406e-03
    42    3.002609431782e-04
    43   -1.168974322976e-15
    44    3.843795375485e-04
    45    4.547037637493e-04
    46   -3.318321438866e-16
    47    1.745631353316e-03
    48    8.927058429791e-05
    49   -5.445351908678e-04
    50    7.030970160894e-16
    51    4.876800499993e-04
    52   -3.640623405931e-16
    53   -5.657441394093e-04
    54    3.588663000383e-04
    55   -4.720839813792e-04
    56   -2.510476762747e-16
    57   -2.559081893005e-05
    58   -5.651665611663e-01
    59   -1.063401805653e-02
    60    6.406796545167e-03
    61    6.476204188136e-05
    62   -2.538200600241e-16
    63   -1.166334787030e-04
    64    4.608773265141e-05
    65    9.367803321583e-16
    66    1.405792293203e-03
    67   -4.257776904766e-04
    68   -5.772416661086e-04
    69    7.342438043164e-16
    70   -3.525513464423e-04
    71   -1.338282898038e-15
    72    5.648879528996e-04
    73   -4.372056231388e-04
    74    3.367223662286e-04
    75   -4.935500242570e-16
    76    4.084871377059e-04
    77    1.480341283530e-01
    78    2.968059254136e-03
    79   -4.187159956685e-03
    80   -7.352543673288e-05
    81   -7.578191386139e-16
    82   -4.073249921479e-05
    83    8.504731965690e-04
    84   -2.518189451761e-15
    85   -1.716683554883e-03
    86    2.014681725136e-04
    87   -5.070181626910e-04
    88   -4.190089192520e-17
    89    4.160678430797e-04
    90   -2.807319225780e-16
    91   -4.782177248564e-04
    92   -3.451714380047e-04
    93    1.733627209078e-04
    94   -4.466704502921e-16
    95   -2.609199903941e-04
Sym=X
Ene= 2.000000
Spin=Alpha
Occup=1
     1   -4.638124644841e-01
     2   -7.451674227669e-03
     3    1.022591819682e-03
     4   -2.629243684855e-05
     5   -1.007207660726e-14
     6   -1.425474735310e-04
     7    1.722131014120e-04
     8   -6.938392465164e-15
     9    9.185096454972e-04
    10   -5.872144580333e-04
    11   -4.168771395278e-05
    12   -9.700789688424e-16
    13   -3.574469891997e-04
    14    1.327254218396e-15
    15    2.261635235846e-04
    16   -3.082485044967e-04
    17   -2.440999569524e-05
    18    8.181222204284e-16
    19   -6.099328632694e-04
    20    4.533815104045e-01
    21    8.149729075861e-03
    22   -2.659696971917e-03
    23   -2.609636405928e-04
    24   -7.285714983298e-15
    25    3.447499882417e-04
    26   -4.992828857443e-04
    27   -4.796528676904e-15
    28   -1.996014679341e-04
    29   -4.234771787119e-05
    30    1.232938729704e-04
    31   -1.541487460448e-15
    32    6.918746167562e-04
    33    2.222736856965e-15
    34   -3.298759312959e-04
    35    8.248594381813e-04
    36    3.426401057325e-04
    37   -9.132400281278e-16
    38    1.842535793076e-04
    39    6.143201069671e-01
    40    1.109952169815e-02
    41   -4.221021821516e-03
    42    3.525883802043e-04
    43   -4.779824342470e-15
    44    4.755936092446e-04
    45    2.125079470074e-04
    46   -3.967096770850e-15
    47    4.049714251478e-04
    48   -2.299847952490e-05
    49   -2.343114215887e-04
    50   -4.410020498034e-16
    51    8.614250683762e-04
    52   -1.850420775306e-17
    53   -5.174517932822e-04
    54    8.567589620322e-04
    55   -4.744898010669e-04
    56    9.657198290468e-18
    57    1.942128278978e-04
    58   -3.633237241696e-01
    59   -6.706802040619e-03
    60    3.143106953308e-03
    61    6.053899656501e-05
    62   -3.776598027396e-15
    63    3.144863758734e-05
    64   -2.211679216441e-04
    65   -1.070711185221e-16
    66    7.557880809024e-04
    67   -4.242950143994e-04
    68   -3.651112154047e-04
    69   -3.950681275204e-16
    70   -2.025374583359e-04
    71   -3.001433579200e-16
    72    4.525796444674e-04
    73   -2.897015095203e-04
    74    2.663749762705e-04
    75   -8.576205784504e-16
    76    2.828382229879e-04
    77   -2.549899927135e-01
    78   -4.618911157075e-03
    79    1.377897829873e-03
    80   -6.276268202539e-05
    81   -5.350971178177e-15
    82    4.644579230170e-05
    83    2.482307378238e-04
    84   -2.850060281453e-15
    85    1.352512247645e-04
    86   -3.117021400194e-04
    87    1.694616210031e-04
    88   -2.202607306460e-15
    89   -6.991671913792e-05
    90    4.295786353805e-16
    91    2.748825376669e-04
    92   -2.886664455511e-04
    93   -1.745561301974e-04
    94   -1.724426233518e-15
    95    1.715425778337e-04
Sym=X
Ene= 2.000000
Spin=Alpha
Occup=1
     1    2.156891752397e-01
     2    3.328270783644e-03
     3    5.520282459824e-04
     4    1.031629319943e-04
     5   -1.456049202571e-15
     6    1.329444566039e-04
     7   -6.917687873289e-04
     8   -5.271804565585e-16
     9   -1.178139634126e-03
    10    7.678436107813e-05
    11    1.614433458407e-04
    12    4.228382849565e-16
    13    1.591866329832e-04
    14   -4.929167989273e-16
    15    1.167552665411e-04
    16    2.718999904965e-04
    17    9.855671292374e-05
    18   -8.951965426959e-16
    19    1.834650890838e-04
    20    1.517839955436e-01
    21    3.076405978317e-03
    22   -4.462955672456e-03
    23   -2.832826406464e-05
    24   -4.045916646579e-16
    25    1.213233165023e-05
    26    1.784169559432e-03
    27    1.924785698998e-16
    28    2.353630351667e-03
    29    1.362096511768e-04
    30    3.856930912090e-04
    31    3.909096488242e-17
    32    1.944270085827e-04
    33    3.364291452724e-16
    34   -4.057122123973e-04
    35   -7.183134819778e-04
    36    2.433589168523e-04
    37    1.311105745300e-16
    38   -4.547586202196e-05
    39   -4.778979717232e-01
    40   -8.452407296735e-03
    41    1.502631405646e-03
    42   -3.267388132107e-04
    43   -8.815832484865e-16
    44   -4.995706645124e-04
    45   -7.213632502121e-04
    46   -1.397493068070e-15
    47    2.316688862460e-05
    48    6.157841116772e-05
    49    2.924763906723e-05
    50   -4.375746961210e-16
    51   -4.494929955300e-04
    52    3.320172003167e-16
    53    3.141158877901e-04
    54   -8.592494053475e-04
    55    2.632488612371e-04
    56    9.067593731210e-18
    57   -8.122528171027e-05
    58   -3.685461195010e-01
    59   -6.474028376467e-03
    60    1.320573165292e-03
    61    1.120257977656e-05
    62   -1.297555148688e-15
    63    3.877376496333e-05
    64   -4.262163435320e-05
    65    1.514106643427e-16
    66   -1.862920454677e-04
    67    1.896413845901e-05
    68    2.537114184248e-04
    69   -6.971649090807e-17
    70    2.498977527986e-04
    71   -5.690620265682e-16
    72   -3.781713258199e-05
    73   -5.907689463444e-04
    74    1.621860085439e-05
    75   -8.340998780020e-16
    76   -5.552197867831e-05
    77   -7.489477954933e-01
    78   -1.382959607209e-02
    79    7.692200384287e-03
    80   -2.402921546968e-06
    81   -1.867654002642e-17
    82   -1.773925236867e-05
    83    6.880742607302e-05
    84   -2.085566245749e-16
    85    2.155095593586e-03
    86   -3.956271063615e-04
    87    4.676723673303e-04
    88    6.979086318676e-16
    89   -2.334123567385e-04
    90   -4.067323032902e-16
    91    6.075307596987e-04
    92   -5.800244343513e-04
    93   -3.545567309042e-04
    94    1.012854987583e-15
    95    3.459594308543e-04
Sym=X
Ene= 2.000000
Spin=Alpha
Occup=1
     1    6.241479911338e-02
     2    1.032417342475e-03
     3   -2.239851963768e-04
     4   -1.623215624892e-04
     5   -9.768785923175e-16
     6    1.835411287397e-05
     7    1.682330578897e-03
     8   -1.708629539928e-15
     9   -7.239760568796e-05
    10    2.770746242884e-05
    11   -1.754254280134e-04
    12   -1.030725249468e-16
    13    2.264037126119e-05
    14   -4.586326692240e-16
    15   -7.166840796670e-06
    16    3.486346186961e-05
    17   -2.578625997315e-04
    18    3.685490895243e-16
    19    5.140867162152e-05
    20   -4.873921370540e-01
    21   -8.654309932954e-03
    22    1.687621802560e-03
    23    2.149145882637e-04
    24   -1.366949140682e-15
    25   -4.006660472904e-04
    26    3.995867043799e-04
    27   -7.299982002532e-17
    28   -9.226481617860e-04
    29   -2.167814963781e-05
    30    8.222417511560e-05
    31   -1.995137936424e-16
    32   -1.384093637968e-04
    33   -6.060767729378e-16
    34    2.656496433277e-04
    35   -4.874151322677e-04
    36   -2.021026176295e-04
    37    3.446670727703e-16
    38    2.013054034552e-05
    39    4.372480273026e-01
    40    7.814021294262e-03
    41   -1.762716002220e-03
    42    1.796478327974e-04
    43   -3.244853850074e-16
    44    3.421813769394e-04
    45    2.356332114062e-04
    46    1.295290882525e-15
    47    1.202937839152e-03
    48    4.809357953223e-05
    49    2.866196187971e-05
    50   -5.905962824160e-16
    51    8.567351898606e-05
    52   -1.269359374061e-16
    53   -2.694912578125e-04
    54    3.175507262266e-04
    55   -1.983626462322e-04
    56    1.602804540888e-16
    57   -4.665467081812e-05
    58    4.644996269189e-01
    59    8.553604736299e-03
    60   -4.760247949533e-03
    61   -5.669852881314e-06
    62   -5.585363755418e-16
    63   -4.739642204475e-06
    64   -2.487519427236e-03
    65   -1.570332659650e-15
    66    2.022903370343e-04
    67    1.591724680635e-04
    68    2.808619498192e-04
    69   -5.031729304249e-16
    70    3.099726066195e-04
    71    1.040955996049e-15
    72   -4.270741251309e-04
    73    2.084736054551e-04
    74   -1.205824658092e-04
    75    3.736107735845e-16
    76   -3.211144434390e-04
    77   -5.884785778712e-01
    78   -1.080828637864e-02
    79    5.716733148653e-03
    80   -1.093597065115e-05
    81   -2.210764012920e-15
    82   -2.007674854874e-06
    83   -2.448267954310e-03
    84   -9.397744463525e-16
    85   -2.832961083885e-05
    86   -1.937380852606e-04
    87    2.953818171481e-04
    88   -1.029295202075e-16
    89   -2.995425672672e-04
    90    3.440970663540e-16
    91    4.757340017160e-04
    92   -3.558924136843e-04
    93   -1.579106125891e-04
    94    4.085102110160e-16
    95    3.489699032286e-04
Sym=X
Ene= 1.985244
Spin=Alpha
Occup=1
     1    1.318406030034e-01
     2   -2.722372184262e-01
     3   -2.303109321697e-01
     4    2.520609896238e-13
     5   -1.620225380281e-15
     6    1.892318974955e-02
     7    7.201781792671e-14
     8   -4.332147373060e-16
     9    3.574442809546e-02
    10   -3.970760552660e-03
    11   -2.358930594223e-14
    12    8.100906506190e-16
    13   -1.061597736460e-02
    14   -3.447678744524e-16
    15   -1.170670145581e-01
    16   -1.574330240855e-02
    17    6.629588655851e-15
    18   -4.852655226141e-16
    19    1.870204896278e-02
    20    9.295757722585e-02
    21   -1.845382838307e-01
    22   -7.124334107594e-02
    23    3.793776761011e-02
    24   -1.063436999617e-15
    25   -6.355797301124e-03
    26   -2.457784332269e-02
    27    7.313522303755e-16
    28   -1.327518938743e-02
    29   -6.035195562893e-03
    30    6.957718430052e-03
    31   -2.019779935320e-17
    32   -9.565285612213e-03
    33   -9.003680598945e-16
    34   -8.102494594384e-02
    35   -5.304933346921e-03
    36    1.035442744556e-02
    37    4.946847181488e-16
    38    3.759489127250e-03
    39    9.295757722664e-02
    40   -1.845382838317e-01
    41   -7.124334107671e-02
    42   -3.793776760993e-02
    43   -1.467616026217e-15
    44   -6.355797301026e-03
    45    2.457784332264e-02
    46   -2.338233708311e-15
    47   -1.327518938735e-02
    48   -6.035195562936e-03
    49   -6.957718430045e-03
    50    3.496456851077e-16
    51   -9.565285612237e-03
    52   -2.854362033336e-16
    53   -8.102494594451e-02
    54   -5.304933347109e-03
    55   -1.035442744562e-02
    56    1.321725344901e-16
    57    3.759489127287e-03
    58    7.439177471044e-02
    59   -1.491300311711e-01
    60   -1.022519825041e-01
    61   -2.092873754332e-02
    62   -8.657297367035e-16
    63   -3.633753545672e-02
    64   -3.659673077667e-03
    65    5.419080477299e-16
    66   -1.261133707380e-02
    67   -4.781685485889e-03
    68    1.840228397213e-03
    69    7.665313437396e-16
    70   -6.910268050011e-03
    71   -3.779824286920e-17
    72   -5.298864592278e-02
    73   -7.768730602389e-03
    74   -4.386659692500e-03
    75   -5.185941503192e-17
    76   -5.632460508054e-03
    77    7.439177471009e-02
    78   -1.491300311706e-01
    79   -1.022519825037e-01
    80    2.092873754364e-02
    81   -4.488078341272e-16
    82   -3.633753545648e-02
    83    3.659673077673e-03
    84   -2.016634011760e-15
    85   -1.261133707373e-02
    86   -4.781685485838e-03
    87   -1.840228397173e-03
    88   -2.856147743402e-16
    89   -6.910268050010e-03
    90    2.797623155782e-16
    91   -5.298864592248e-02
    92   -7.768730602345e-03
    93    4.386659692491e-03
    94   -3.744665437411e-16
    95   -5.632460508017e-03
Sym=X
Ene= 1.979834
Spin=Alpha
Occup=1
     1   -1.089271265703e-01
     2    2.336197443649e-01
     3    1.754806040498e-01
     4   -6.568863513147e-13
     5    1.512005229025e-14
     6    7.993019156202e-02
     7   -3.625986127726e-13
     8    9.990723167590e-15
     9    5.569672930994e-03
    10    9.462742316890e-04
    11    6.094941915364e-14
    12   -6.396784979210e-16
    13    4.807273978795e-03
    14    1.796512072547e-16
    15    1.678631744259e-01
    16    2.176958379046e-02
    17   -4.620337847940e-15
    18    7.375188606304e-16
    19   -2.403431656514e-02
    20   -5.433525873404e-03
    21    7.011450732646e-03
    22   -2.833725661815e-03
    23   -1.071107490309e-02
    24    9.433811620772e-15
    25    9.740838138198e-02
    26   -4.877355036475e-03
    27    3.829786161869e-15
    28    3.351631873177e-02
    29   -5.069286446929e-03
    30   -1.692517211391e-02
    31    1.125695776653e-15
    32    3.712181781516e-03
    33   -7.143119750492e-17
    34    2.659208450595e-02
    35    7.825538246530e-03
    36   -3.964788442308e-03
    37    8.723428529571e-17
    38   -8.097002818223e-05
    39   -5.433525874563e-03
    40    7.011450735123e-03
    41   -2.833725660368e-03
    42    1.071107490232e-02
    43    8.028145279701e-15
    44    9.740838138217e-02
    45    4.877355036261e-03
    46    5.515050831472e-15
    47    3.351631873169e-02
    48   -5.069286446854e-03
    49    1.692517211389e-02
    50   -3.839178477644e-16
    51    3.712181781567e-03
    52    2.122548675537e-15
    53    2.659208450799e-02
    54    7.825538247110e-03
    55    3.964788442489e-03
    56    7.094953056658e-16
    57   -8.097002826256e-05
    58    1.131347511237e-01
    59   -2.263053984570e-01
    60   -1.330187134517e-01
    61   -1.642012384605e-02
    62    4.600196725800e-15
    63    6.320104349925e-02
    64   -1.298249699473e-02
    65    4.536073895352e-17
    66    1.863897178438e-02
    67    3.295734583367e-03
    68    5.483476628032e-04
    69   -4.450162998649e-16
    70   -1.312644290616e-02
    71   -8.304100294400e-16
    72   -1.608645463294e-01
    73   -4.112220340243e-02
    74   -1.113321922786e-02
    75   -6.548798270559e-16
    76   -1.273601825235e-02
    77    1.131347511243e-01
    78   -2.263053984581e-01
    79   -1.330187134523e-01
    80    1.642012384533e-02
    81    6.094000318123e-15
    82    6.320104349894e-02
    83    1.298249699458e-02
    84    6.355983033932e-15
    85    1.863897178414e-02
    86    3.295734583244e-03
    87   -5.483476628723e-04
    88    2.657875196728e-15
    89   -1.312644290614e-02
    90   -1.644515118204e-15
    91   -1.608645463301e-01
    92   -4.112220340266e-02
    93    1.113321922789e-02
    94    5.927776175941e-16
    95   -1.273601825243e-02
Sym=X
Ene= 1.979031
Spin=Alpha
Occup=1
     1   -8.714715168265e-13
     2    1.880574411208e-12
     3    1.552738279196e-12
     4    1.101659278426e-01
     5    6.375194310875e-15
     6    5.355365446161e-13
     7    5.565343159297e-02
     8    4.655470823256e-15
     9   -2.536494749381e-14
    10    2.531672715901e-14
    11   -1.061168327923e-02
    12    1.291208215866e-17
    13    3.855953495176e-14
    14    5.385609866901e-16
    15    1.295686152730e-12
    16    2.055353533647e-13
    17    1.190387460780e-03
    18   -6.706606380329e-17
    19   -1.810561634505e-13
    20   -1.138810766047e-01
    21    2.302501685122e-01
    22    1.410737356844e-01
    23    7.642365639289e-02
    24    4.157397430099e-15
    25    4.380815894778e-03
    26    1.358668786985e-02
    27   -2.738768199984e-16
    28   -1.155803796103e-02
    29    8.633209168964e-03
    30    1.860705929723e-03
    31    1.349145611822e-15
    32    4.756145581284e-03
    33    2.413099262440e-16
    34    1.888699345953e-01
    35    5.590060257245e-02
    36   -1.690171933557e-02
    37    3.652215768583e-16
    38   -7.571406597385e-03
    39    1.138810766046e-01
    40   -2.302501685117e-01
    41   -1.410737356844e-01
    42    7.642365639338e-02
    43    3.765868666213e-15
    44   -4.380815893797e-03
    45    1.358668786980e-02
    46    5.113359944408e-15
    47    1.155803796142e-02
    48   -8.633209168976e-03
    49    1.860705929947e-03
    50   -3.501344573512e-16
    51   -4.756145581220e-03
    52    1.054199708398e-15
    53   -1.888699345951e-01
    54   -5.590060257251e-02
    55   -1.690171933552e-02
    56   -5.109468309102e-16
    57    7.571406597381e-03
    58    6.726092620640e-02
    59   -1.339767513094e-01
    60   -8.246302765741e-02
    61    8.680086106287e-02
    62    1.651776105233e-15
    63   -1.362200445081e-02
    64    2.088799495958e-02
    65   -3.472396156125e-15
    66   -1.180336584313e-02
    67   -1.194585484568e-02
    68    5.436039147905e-03
    69   -2.445881546689e-16
    70    1.920361570036e-03
    71   -1.328258145146e-15
    72   -1.084087522159e-01
    73   -3.082672326987e-02
    74   -5.414885961892e-03
    75    2.856363993240e-16
    76   -9.761444565441e-03
    77   -6.726092620576e-02
    78    1.339767513079e-01
    79    8.246302765664e-02
    80    8.680086106289e-02
    81    3.247281911832e-15
    82    1.362200445137e-02
    83    2.088799495968e-02
    84    5.219439833288e-15
    85    1.180336584330e-02
    86    1.194585484572e-02
    87    5.436039147894e-03
    88    1.447606690257e-16
    89   -1.920361570138e-03
    90   -1.209215381036e-15
    91    1.084087522147e-01
    92    3.082672326951e-02
    93   -5.414885961808e-03
    94   -1.937132944189e-15
    95    9.761444565350e-03
Sym=X
Ene= 1.971875
Spin=Alpha
Occup=1
     1   -8.449803745561e-02
     2    1.875319916689e-01
     3    1.984435813102e-01
     4   -1.690105311466e-12
     5   -1.733809245540e-15
     6    1.361756225190e-01
     7   -7.538521110624e-13
     8   -2.091588598455e-15
     9    2.389264464556e-02
    10    1.197184385571e-02
    11    8.581973626609e-14
    12   -3.879584746825e-16
    13   -8.591497898115e-03
    14    7.140071133130e-16
    15    2.072427721723e-01
    16    4.439935604074e-02
    17   -6.791929302899e-15
    18    2.024636844459e-16
    19   -2.362219440185e-02
    20    8.120694399019e-02
    21   -1.778196366972e-01
    22   -1.683121771286e-01
    23   -1.587270690075e-01
    24    1.106362535347e-15
    25   -3.106526114055e-02
    26   -2.822199952421e-02
    27   -1.565729860566e-15
    28   -6.933912323802e-03
    29    5.914248866223e-03
    30   -1.514347461925e-02
    31    3.135910383981e-16
    32   -3.060533873532e-03
    33    9.379526391198e-16
    34   -2.327315531159e-01
    35   -7.500235824306e-02
    36    1.665356704451e-02
    37    3.036131497099e-16
    38    6.947670045603e-03
    39    8.120694398814e-02
    40   -1.778196366927e-01
    41   -1.683121771238e-01
    42    1.587270690045e-01
    43   -5.388124583949e-16
    44   -3.106526113649e-02
    45    2.822199952397e-02
    46   -1.250281029631e-15
    47   -6.933912323681e-03