[Molden Format]
[Atoms] (Angs)
  N      1    7      0.00000000     -0.00000000      1.11738466
  H      2    1      0.00000000     -0.00000000      2.12136066
  C      3    6      1.12201016     -0.00000000      0.33463977
  H      4    1      2.10556415     -0.00000000      0.76898420
  C      5    6     -1.12201016      0.00000000      0.33463977
  H      6    1     -2.10556415      0.00000000      0.76898420
  C      7    6     -0.70797599     -0.00000000     -0.98428136
  H      8    1     -1.35674211      0.00000000     -1.84266130
  C      9    6      0.70797599      0.00000000     -0.98428136
  H     10    1      1.35674211      0.00000000     -1.84266130
[GTO]
1    0
S    7    1.000000
   9.04600000E+03    7.00000000E-04 
   1.35700000E+03    5.38983000E-03 
   3.09300000E+02    2.74060000E-02 
   8.77300000E+01    1.03262320E-01 
   2.85600000E+01    2.78905240E-01 
   1.02100000E+01    4.50217400E-01 
   3.83800000E+00    2.79943000E-01 
S    7    1.000000
   9.04600000E+03    5.00000000E-08 
   1.35700000E+03   -2.97600000E-05 
   8.77300000E+01   -1.97900000E-03 
   2.85600000E+01   -6.51949000E-03 
   1.02100000E+01   -6.00100000E-02 
   3.83800000E+00   -6.09975300E-02 
   7.46600000E-01    5.52378750E-01 
S    1    1.000000
   2.24800000E-01    1.00000000E+00 
P    3    1.000000
   1.35500000E+01    3.99190000E-02 
   2.91700000E+00    2.17169000E-01 
   7.97300000E-01    5.10319000E-01 
P    1    1.000000
   2.18500000E-01    1.00000000E+00 
D    1    1.000000
   8.17000000E-01    1.00000000E+00 

2    0
S    3    1.000000
   1.30100000E+01    1.96850000E-02 
   1.96200000E+00    1.37977000E-01 
   4.44600000E-01    4.78148000E-01 
S    1    1.000000
   1.22000000E-01    1.00000000E+00 
P    1    1.000000
   7.27000000E-01    1.00000000E+00 

3    0
S    7    1.000000
   6.66500000E+03    6.91990000E-04 
   1.00000000E+03    5.32976000E-03 
   2.28000000E+02    2.70770000E-02 
   6.47100000E+01    1.01768130E-01 
   2.10600000E+01    2.74902850E-01 
   7.49500000E+00    4.50094590E-01 
   2.79700000E+00    2.86933450E-01 
S    7    1.000000
   6.66500000E+03    3.10000000E-07 
   1.00000000E+03   -2.72700000E-05 
   6.47100000E+01   -1.80535000E-03 
   2.10600000E+01   -5.86561000E-03 
   7.49500000E+00   -5.51393100E-02 
   2.79700000E+00   -6.69876600E-02 
   5.21500000E-01    5.47743760E-01 
S    1    1.000000
   1.59600000E-01    1.00000000E+00 
P    3    1.000000
   9.43900000E+00    3.81090000E-02 
   2.00200000E+00    2.09480000E-01 
   5.45600000E-01    5.08557000E-01 
P    1    1.000000
   1.51700000E-01    1.00000000E+00 
D    1    1.000000
   5.50000000E-01    1.00000000E+00 

4    0
S    3    1.000000
   1.30100000E+01    1.96850000E-02 
   1.96200000E+00    1.37977000E-01 
   4.44600000E-01    4.78148000E-01 
S    1    1.000000
   1.22000000E-01    1.00000000E+00 
P    1    1.000000
   7.27000000E-01    1.00000000E+00 

5    0
S    7    1.000000
   6.66500000E+03    6.91990000E-04 
   1.00000000E+03    5.32976000E-03 
   2.28000000E+02    2.70770000E-02 
   6.47100000E+01    1.01768130E-01 
   2.10600000E+01    2.74902850E-01 
   7.49500000E+00    4.50094590E-01 
   2.79700000E+00    2.86933450E-01 
S    7    1.000000
   6.66500000E+03    3.10000000E-07 
   1.00000000E+03   -2.72700000E-05 
   6.47100000E+01   -1.80535000E-03 
   2.10600000E+01   -5.86561000E-03 
   7.49500000E+00   -5.51393100E-02 
   2.79700000E+00   -6.69876600E-02 
   5.21500000E-01    5.47743760E-01 
S    1    1.000000
   1.59600000E-01    1.00000000E+00 
P    3    1.000000
   9.43900000E+00    3.81090000E-02 
   2.00200000E+00    2.09480000E-01 
   5.45600000E-01    5.08557000E-01 
P    1    1.000000
   1.51700000E-01    1.00000000E+00 
D    1    1.000000
   5.50000000E-01    1.00000000E+00 

6    0
S    3    1.000000
   1.30100000E+01    1.96850000E-02 
   1.96200000E+00    1.37977000E-01 
   4.44600000E-01    4.78148000E-01 
S    1    1.000000
   1.22000000E-01    1.00000000E+00 
P    1    1.000000
   7.27000000E-01    1.00000000E+00 

7    0
S    7    1.000000
   6.66500000E+03    6.91990000E-04 
   1.00000000E+03    5.32976000E-03 
   2.28000000E+02    2.70770000E-02 
   6.47100000E+01    1.01768130E-01 
   2.10600000E+01    2.74902850E-01 
   7.49500000E+00    4.50094590E-01 
   2.79700000E+00    2.86933450E-01 
S    7    1.000000
   6.66500000E+03    3.10000000E-07 
   1.00000000E+03   -2.72700000E-05 
   6.47100000E+01   -1.80535000E-03 
   2.10600000E+01   -5.86561000E-03 
   7.49500000E+00   -5.51393100E-02 
   2.79700000E+00   -6.69876600E-02 
   5.21500000E-01    5.47743760E-01 
S    1    1.000000
   1.59600000E-01    1.00000000E+00 
P    3    1.000000
   9.43900000E+00    3.81090000E-02 
   2.00200000E+00    2.09480000E-01 
   5.45600000E-01    5.08557000E-01 
P    1    1.000000
   1.51700000E-01    1.00000000E+00 
D    1    1.000000
   5.50000000E-01    1.00000000E+00 

8    0
S    3    1.000000
   1.30100000E+01    1.96850000E-02 
   1.96200000E+00    1.37977000E-01 
   4.44600000E-01    4.78148000E-01 
S    1    1.000000
   1.22000000E-01    1.00000000E+00 
P    1    1.000000
   7.27000000E-01    1.00000000E+00 

9    0
S    7    1.000000
   6.66500000E+03    6.91990000E-04 
   1.00000000E+03    5.32976000E-03 
   2.28000000E+02    2.70770000E-02 
   6.47100000E+01    1.01768130E-01 
   2.10600000E+01    2.74902850E-01 
   7.49500000E+00    4.50094590E-01 
   2.79700000E+00    2.86933450E-01 
S    7    1.000000
   6.66500000E+03    3.10000000E-07 
   1.00000000E+03   -2.72700000E-05 
   6.47100000E+01   -1.80535000E-03 
   2.10600000E+01   -5.86561000E-03 
   7.49500000E+00   -5.51393100E-02 
   2.79700000E+00   -6.69876600E-02 
   5.21500000E-01    5.47743760E-01 
S    1    1.000000
   1.59600000E-01    1.00000000E+00 
P    3    1.000000
   9.43900000E+00    3.81090000E-02 
   2.00200000E+00    2.09480000E-01 
   5.45600000E-01    5.08557000E-01 
P    1    1.000000
   1.51700000E-01    1.00000000E+00 
D    1    1.000000
   5.50000000E-01    1.00000000E+00 

10    0
S    3    1.000000
   1.30100000E+01    1.96850000E-02 
   1.96200000E+00    1.37977000E-01 
   4.44600000E-01    4.78148000E-01 
S    1    1.000000
   1.22000000E-01    1.00000000E+00 
P    1    1.000000
   7.27000000E-01    1.00000000E+00 

[MO]
Sym=X
Ene= 2.000000
Spin=Alpha
Occup=1
     1   -7.435705937850e-01
     2   -1.354726637650e-02
     3    9.108673769050e-03
     4   -7.242042373601e-05
     5   -1.558268645781e-14
     6    9.670210544381e-05
     7    4.469020947495e-04
     8   -1.035118569988e-14
     9   -3.588673503110e-03
    10   -1.060036911362e-04
    11   -1.184578091960e-04
    12   -5.268251574721e-16
    13    2.448881899182e-04
    14    2.057658666227e-16
    15    5.772336649849e-04
    16    3.005304118541e-04
    17   -6.248508466317e-05
    18    4.241581325920e-16
    19   -4.019668810352e-04
    20   -5.470612110305e-01
    21   -9.879807010340e-03
    22   -2.828014043288e-04
    23    4.563041223546e-04
    24   -1.404895929378e-14
    25   -6.263965149482e-04
    26    2.698476609786e-03
    27   -7.223848019640e-15
    28   -3.206585009589e-04
    29   -3.598494763847e-07
    30   -4.130102243697e-04
    31   -1.206276183753e-15
    32   -5.703923244849e-04
    33    2.058565482780e-15
    34    4.747880429649e-04
    35   -1.399684756692e-03
    36   -5.035946536566e-04
    37   -7.062603947823e-16
    38   -1.021336336171e-05
    39   -1.007124190670e-01
    40   -1.677583412073e-03
    41   -4.857683871038e-03
    42   -1.963465080397e-04
    43   -7.022389088682e-15
    44   -2.631194504156e-04
    45   -3.595014370528e-03
    46   -5.944206775294e-15
    47    1.415818456816e-03
    48    5.513850613651e-05
    49    7.192396211419e-05
    50   -1.357748031547e-15
    51   -6.691178478354e-05
    52   -1.427656762183e-15
    53   -6.948644977031e-05
    54   -1.338772707348e-03
    55    1.220939960707e-04
    56   -5.358054825025e-16
    57    2.290457134093e-05
    58   -3.637494561242e-01
    59   -6.722601793298e-03
    60    5.240335208132e-03
    61   -1.103837984864e-04
    62   -6.685703287208e-15
    63    1.053180086778e-04
    64    7.463662133347e-04
    65   -3.538901362407e-15
    66    2.067134865679e-03
    67   -1.446203125438e-04
    68   -3.280179090320e-04
    69   -2.043850584818e-15
    70   -2.411656073578e-04
    71    1.777112981555e-15
    72    4.547058602847e-04
    73    6.534926822487e-05
    74    1.717573581055e-04
    75    5.968499064116e-16
    76    1.831383233273e-04
    77    1.097101525990e-02
    78    4.579890990675e-04
    79   -5.692967660441e-04
    80    1.043863860613e-04
    81   -1.230718201661e-14
    82    1.506096098178e-04
    83   -4.456241135519e-04
    84   -7.373321013159e-15
    85    1.983175956869e-04
    86    2.119646295357e-04
    87   -2.899699990526e-04
    88   -1.444835585277e-15
    89    1.874402371167e-04
    90    2.584778002545e-15
    91   -1.233962762589e-04
    92    9.350074174398e-05
    93    1.186232220575e-04
    94    6.033853038060e-18
    95   -1.835781698638e-04
Sym=X
Ene= 2.000000
Spin=Alpha
Occup=1
     1    5.295003157376e-01
     2    9.201174368194e-03
     3   -4.196577821907e-03
     4   -1.382894910380e-04
     5   -3.676892174239e-15
     6    4.265582095428e-05
     7    8.386951574876e-04
     8   -3.497568999557e-15
     9    9.744629416333e-04
    10    1.637500245631e-04
    11   -2.281425942864e-04
    12    4.994043535811e-16
    13    1.187907956922e-05
    14    3.036232390819e-17
    15   -2.414913461567e-04
    16    3.997943792091e-05
    17   -1.167765538721e-04
    18   -1.180731443078e-16
    19    3.660310294878e-04
    20   -4.245203803637e-01
    21   -7.700909074080e-03
    22    5.294990468916e-03
    23    2.114870526896e-04
    24   -8.141134040766e-15
    25   -3.156144021436e-04
    26   -1.675209669137e-03
    27   -5.359101360615e-15
    28   -1.311306589527e-03
    29   -9.408085322665e-06
    30   -1.444347280151e-04
    31    4.579765197685e-16
    32   -5.009168063182e-04
    33    5.269015266138e-16
    34    4.567012528720e-04
    35    7.819225931465e-05
    36   -2.741663957982e-04
    37   -7.181235928917e-16
    38   -9.338580775688e-05
    39    4.294340769895e-01
    40    8.002866924519e-03
    41   -3.587666536788e-03
    42    2.889688174547e-04
    43    2.207576586426e-15
    44    3.796165482073e-04
    45   -9.380596523780e-05
    46    2.418431829295e-15
    47    2.042662628645e-03
    48    9.774620793270e-05
    49   -5.257634162742e-04
    50    3.921922704641e-16
    51    4.800051349280e-04
    52   -2.530743538071e-16
    53   -5.973812089585e-04
    54    1.800885433312e-04
    55   -4.641290183880e-04
    56   -1.567631873009e-16
    57   -2.710433164748e-05
    58   -5.572457065411e-01
    59   -1.052071415137e-02
    60    6.834823477056e-03
    61    4.198786536951e-05
    62    1.225437543446e-15
    63   -1.047672717715e-04
    64    6.024379844786e-05
    65    2.104246669836e-15
    66    1.760187460931e-03
    67   -4.257973493471e-04
    68   -6.272137196031e-04
    69    8.480970011467e-16
    70   -3.922364442460e-04
    71   -1.475595602434e-15
    72    6.055283568672e-04
    73   -3.522327863625e-04
    74    3.476588552551e-04
    75   -2.538231497645e-16
    76    4.169802363833e-04
    77    1.991241844671e-01
    78    3.955647143298e-03
    79   -4.765724518899e-03
    80   -5.337191702533e-05
    81   -5.366640404925e-15
    82   -1.615061460715e-05
    83    6.350334067297e-04
    84   -5.780553077358e-15
    85   -1.893760855716e-03
    86    2.799655888509e-04
    87   -5.951622877557e-04
    88   -5.175316647563e-16
    89    4.600695754361e-04
    90   -2.486886218810e-16
    91   -5.457996972618e-04
    92   -2.849427471988e-04
    93    2.268786867273e-04
    94   -3.985917032160e-16
    95   -3.154601889111e-04
Sym=X
Ene= 2.000000
Spin=Alpha
Occup=1
     1    2.766854919158e-01
     2    4.208077270491e-03
     3    4.013214457718e-04
     4    1.444233335125e-06
     5    4.335644391255e-15
     6    1.236965787533e-04
     7   -1.790746440712e-05
     8    3.227466858211e-15
     9   -1.219798130347e-03
    10    5.397679846276e-04
    11    1.171830017538e-06
    12    7.868369696190e-16
    13    3.533162722453e-04
    14   -6.968320738394e-16
    15   -1.530551663721e-04
    16    2.867715903732e-04
    17    2.803016786404e-06
    18   -7.720065317482e-16
    19    4.858376934799e-04
    20   -5.349759141549e-01
    21   -9.698501744785e-03
    22    3.305518700942e-03
    23    3.184415819937e-04
    24    5.975916833302e-15
    25   -4.150012319034e-04
    26    5.658163999777e-04
    27    4.149567020421e-15
    28   -2.941100802664e-04
    29    1.264200606516e-05
    30   -2.626732508805e-04
    31    1.115363764863e-15
    32   -7.860954823242e-04
    33   -1.738130028241e-15
    34    4.605728087965e-04
    35   -8.585865011388e-04
    36   -4.508142434336e-04
    37    7.405022734821e-16
    38   -1.697782027483e-04
    39   -5.428754706095e-01
    40   -9.836753037290e-03
    41    3.306838198247e-03
    42   -3.211398982077e-04
    43    7.528306879180e-16
    44   -4.213023232664e-04
    45   -5.828883856279e-04
    46    8.362046100172e-16
    47   -3.053941079521e-04
    48    1.225708376566e-05
    49    2.579065961415e-04
    50    5.307331666459e-16
    51   -7.841838635018e-04
    52   -2.808482588383e-16
    53    4.623771509795e-04
    54   -8.686349898172e-04
    55    4.524142019780e-04
    56   -1.547560868300e-16
    57   -1.685750669958e-04
    58    4.020089959977e-01
    59    7.357981027832e-03
    60   -2.832581666505e-03
    61   -8.028249720701e-05
    62    2.223042120275e-15
    63   -1.937506210007e-05
    64    3.789842575046e-04
    65   -7.108701395518e-16
    66   -4.798061010959e-04
    67    4.091499692215e-04
    68    2.786562665761e-04
    69   -7.586864089435e-17
    70    1.210821943539e-04
    71    7.091984120129e-16
    72   -3.902191898666e-04
    73    4.371147861651e-04
    74   -2.541999080723e-04
    75    1.104125726177e-15
    76   -2.525216570029e-04
    77    4.195514074111e-01
    78    7.683356321869e-03
    79   -3.027269402138e-03
    80    8.044390504923e-05
    81    5.153540008580e-15
    82   -1.897280705102e-05
    83   -3.108445604728e-04
    84    3.218041520286e-15
    85   -4.948458802338e-04
    86    4.172651049423e-04
    87   -2.922528792813e-04
    88    1.843272564105e-15
    89    1.332855519481e-04
    90   -7.951781029842e-17
    91   -4.077454776893e-04
    92    4.448456362798e-04
    93    2.606908134398e-04
    94    1.683521977517e-15
    95   -2.649264645346e-04
Sym=X
Ene= 2.000000
Spin=Alpha
Occup=1
     1    2.878057988399e-01
     2    4.383413873567e-03
     3    8.876888514121e-04
     4    9.084718020603e-05
     5   -1.191786280715e-15
     6    1.773140989276e-04
     7   -6.355083945049e-04
     8   -3.707703240177e-16
     9   -1.657803103228e-03
    10    2.139432701410e-04
    11    1.386860472386e-04
    12    6.556466340566e-16
    13    2.652951378436e-04
    14   -7.653776368940e-16
    15    1.016601783743e-04
    16    3.730435382375e-04
    17    9.134711351929e-05
    18   -1.009766998884e-15
    19    3.109793001873e-04
    20   -4.087254515485e-02
    21   -4.066800524675e-04
    22   -3.351372820141e-03
    23    9.515907527305e-05
    24    3.198913990109e-16
    25   -1.535687361602e-04
    26    1.988630506698e-03
    27    8.751480657800e-16
    28    2.225771424822e-03
    29    1.432746983047e-04
    30    2.913229980474e-04
    31    4.769307138660e-16
    32   -7.216179664899e-05
    33    4.101277612782e-18
    34   -2.363079488216e-04
    35   -1.025212294245e-03
    36    8.623581318654e-05
    37    3.836151374573e-16
    38   -9.743725100423e-05
    39   -5.924507018885e-01
    40   -1.048506677097e-02
    41    1.638902370487e-03
    42   -4.005629559392e-04
    43   -1.635104859349e-15
    44   -6.014226975523e-04
    45   -1.154986492048e-03
    46   -2.032044524747e-15
    47    2.418416795147e-04
    48    7.966550255393e-05
    49    4.022609033522e-05
    50   -3.531492323074e-16
    51   -6.042319959660e-04
    52   -1.138381275431e-17
    53    3.711021725971e-04
    54   -1.175174699791e-03
    55    3.423099964733e-04
    56   -8.435310678110e-17
    57   -1.234651440687e-04
    58   -3.813574171762e-01
    59   -6.738367254834e-03
    60    1.893002012535e-03
    61   -1.056190085889e-05
    62   -1.727856161443e-15
    63    3.237077869912e-05
    64    1.560896188654e-04
    65   -5.010394567096e-16
    66    2.295584508687e-05
    67    5.690804066246e-05
    68    2.326493304045e-04
    69   -1.992233085115e-16
    70    2.220726597626e-04
    71   -3.020952709372e-16
    72   -2.542141440594e-05
    73   -5.455126067952e-04
    74    8.587594656525e-06
    75   -5.554002616327e-16
    76   -5.300650996852e-05
    77   -6.431401441827e-01
    78   -1.184455582142e-02
    79    6.595175999585e-03
    80    1.843338372000e-05
    81    3.769280385097e-16
    82   -1.357520490901e-05
    83    8.392953453345e-05
    84   -3.369766358544e-18
    85    1.931746643936e-03
    86   -2.636295827029e-04
    87    3.267585476464e-04
    88    1.108580228461e-15
    89   -1.428128771553e-04
    90   -1.806381002319e-16
    91    4.578555734084e-04
    92   -5.117838441861e-04
    93   -2.705922793192e-04
    94    1.492101729252e-15
    95    2.428415209449e-04
Sym=X
Ene= 2.000000
Spin=Alpha
Occup=1
     1   -4.672649504653e-02
     2   -7.360929595850e-04
     3   -1.245960302646e-05
     4    1.534742118298e-04
     5    1.326097149400e-15
     6   -2.205630084606e-05
     7   -1.628019434153e-03
     8    1.635179465650e-15
     9    1.774443956540e-04
    10   -3.419218341510e-05
    11    1.609160881191e-04
    12    5.140044153535e-17
    13   -3.410297996790e-05
    14    6.742803324133e-17
    15   -3.953119493055e-06
    16   -4.568091694510e-05
    17    2.502783999867e-04
    18   -2.902411600284e-16
    19   -4.851383502406e-05
    20    4.769353038366e-01
    21    8.457507129460e-03
    22   -1.412197025207e-03
    23   -2.120139100590e-04
    24    2.982736901135e-15
    25    3.955728434442e-04
    26   -5.363492103340e-04
    27    1.570604042028e-15
    28    8.167235408268e-04
    29    1.810716102321e-05
    30   -9.094245535338e-05
    31    3.480241949187e-16
    32    1.288927163372e-04
    33    2.161758630860e-16
    34   -2.461733558018e-04
    35    5.285356198925e-04
    36    1.948347447385e-04
    37   -2.910714917386e-16
    38   -1.976298880511e-05
    39   -3.931442115629e-01
    40   -7.007983883544e-03
    41    1.476391269148e-03
    42   -1.507115449138e-04
    43   -7.738886900407e-16
    44   -3.028643605822e-04
    45   -2.095062396967e-04
    46   -2.462067468057e-15
    47   -1.095982612326e-03
    48   -4.486163073178e-05
    49   -6.197995888807e-05
    50    4.944429992846e-16
    51   -3.330258239096e-05
    52   -2.283537630311e-16
    53    2.221883710252e-04
    54   -2.692690313974e-04
    55    1.588333392357e-04
    56   -1.316991257987e-16
    57    5.112723759836e-05
    58   -4.949990680208e-01
    59   -9.133608184240e-03
    60    5.147882944219e-03
    61    9.565436061934e-06
    62   -1.709655072734e-16
    63   -8.981558362980e-07
    64    2.485111300222e-03
    65    1.239320875779e-15
    66   -9.994741711677e-05
    67   -1.909959743757e-04
    68   -3.245315378156e-04
    69    5.666820977651e-16
    70   -3.380375228304e-04
    71   -6.599523225526e-16
    72    4.680223866520e-04
    73   -2.248451758610e-04
    74    1.439241880330e-04
    75   -3.511170878487e-16
    76    3.496386012785e-04
    77    6.045509090171e-01
    78    1.112037375028e-02
    79   -6.048691088677e-03
    80    6.309030571109e-06
    81    3.213837553144e-15
    82    1.944403299256e-06
    83    2.489768315529e-03
    84    1.536164681519e-15
    85   -9.929357287061e-05
    86    2.059602931371e-04
    87   -3.280318590523e-04
    88    1.586932563052e-16
    89    3.244971436650e-04
    90    1.078428233691e-16
    91   -5.063320826673e-04
    92    3.432230397226e-04
    93    1.704332493881e-04
    94   -6.494507252703e-16
    95   -3.658716724702e-04
Sym=X
Ene= 1.985229
Spin=Alpha
Occup=1
     1    1.239021150811e-01
     2   -2.618952921638e-01
     3   -2.121198683074e-01
     4    2.980782181953e-13
     5   -1.644439939836e-15
     6    1.587692437262e-02
     7    9.254206541957e-14
     8   -1.023049292309e-16
     9    4.102990976767e-02
    10   -3.685380915347e-03
    11   -2.939933419567e-14
    12    1.037709836204e-15
    13   -1.065584141206e-02
    14   -1.924909403693e-16
    15   -1.037912709436e-01
    16   -2.335784607530e-02
    17    6.034182811560e-15
    18   -4.357173346908e-16
    19    1.750424586748e-02
    20    9.427495134377e-02
    21   -1.892949701814e-01
    22   -6.935880931461e-02
    23    2.953986735003e-02
    24    1.203553437251e-15
    25    1.499537877554e-03
    26   -2.723303327585e-02
    27    2.281494189219e-15
    28   -8.183352057646e-03
    29   -6.570696890990e-03
    30    6.001565638199e-03
    31    4.342942081835e-16
    32   -8.283310193212e-03
    33   -8.229309310882e-16
    34   -8.470730909300e-02
    35   -7.122039831563e-03
    36    1.088265999916e-02
    37    8.172896772155e-16
    38    4.413608169081e-03
    39    9.427495134467e-02
    40   -1.892949701826e-01
    41   -6.935880931549e-02
    42   -2.953986734980e-02
    43   -4.153318621348e-15
    44    1.499537877649e-03
    45    2.723303327575e-02
    46   -4.181055017346e-15
    47   -8.183352057503e-03
    48   -6.570696891042e-03
    49   -6.001565638192e-03
    50    8.117005410210e-16
    51   -8.283310193238e-03
    52   -3.291284904852e-16
    53   -8.470730909377e-02
    54   -7.122039831816e-03
    55   -1.088265999924e-02
    56    5.619347373881e-16
    57    4.413608169124e-03
    58    7.995565586988e-02
    59   -1.634395469013e-01
    60   -1.057993326062e-01
    61   -1.652620626849e-02
    62   -3.138229747528e-15
    63   -3.779435275629e-02
    64   -3.093072375621e-03
    65   -8.215007061774e-17
    66   -1.390542713522e-02
    67   -4.679614456544e-03
    68    2.485726189686e-03
    69    6.354679193339e-16
    70   -7.369562306570e-03
    71   -6.782026487040e-17
    72   -5.990501509822e-02
    73   -9.636821775149e-03
    74   -5.029772748478e-03
    75   -4.594985534049e-16
    76   -6.457329143140e-03
    77    7.995565586949e-02
    78   -1.634395469006e-01
    79   -1.057993326057e-01
    80    1.652620626889e-02
    81    1.035417432760e-15
    82   -3.779435275604e-02
    83    3.093072375643e-03
    84   -4.510226417445e-16
    85   -1.390542713519e-02
    86   -4.679614456482e-03
    87   -2.485726189646e-03
    88    3.062600142546e-16
    89   -7.369562306578e-03
    90    2.514756864690e-16
    91   -5.990501509782e-02
    92   -9.636821775109e-03
    93    5.029772748465e-03
    94   -2.416639786259e-16
    95   -6.457329143096e-03
Sym=X
Ene= 1.979881
Spin=Alpha
Occup=1
     1   -7.239827990947e-13
     2    1.625632866344e-12
     3    1.029355718977e-12
     4   -1.084493372905e-01
     5   -2.564298872260e-16
     6    8.419139895254e-13
     7   -5.264090237060e-02
     8   -1.067013353544e-15
     9    1.029094822302e-13
    10   -1.723534245715e-14
    11    1.175864306303e-02
    12   -1.761040634001e-16
    13    2.856630954984e-14
    14   -1.148078907891e-15
    15    1.208861303738e-12
    16    1.842068747813e-13
    17   -5.081753981789e-04
    18    6.641496707401e-16
    19   -1.906119814101e-13
    20    1.150236387808e-01
    21   -2.341608627863e-01
    22   -1.517672821563e-01
    23   -7.487124179104e-02
    24   -9.541552183581e-16
    25    3.268009709352e-03
    26   -7.489281820725e-03
    27    3.658670454619e-15
    28    2.299730028683e-02
    29   -8.672390456370e-03
    30   -1.826965224226e-03
    31   -1.432670694272e-15
    32   -4.174525715812e-03
    33   -2.528406909128e-16
    34   -1.819671647117e-01
    35   -5.220910655494e-02
    36    1.679909353282e-02
    37   -1.848547320112e-15
    38    8.070337121883e-03
    39   -1.150236387807e-01
    40    2.341608627859e-01
    41    1.517672821561e-01
    42   -7.487124179121e-02
    43   -2.275254151808e-16
    44   -3.268009707587e-03
    45   -7.489281820610e-03
    46   -4.325094951406e-15
    47   -2.299730028623e-02
    48    8.672390456267e-03
    49   -1.826965223953e-03
    50    8.853517037740e-16
    51    4.174525715838e-03
    52   -1.264932775914e-16
    53    1.819671647121e-01
    54    5.220910655509e-02
    55    1.679909353287e-02
    56    2.058327271334e-15
    57   -8.070337121885e-03
    58   -7.001050377524e-02
    59    1.428321373282e-01
    60    7.912312649852e-02
    61   -9.049436506114e-02
    62    2.821203072307e-16
    63    2.007614713574e-02
    64   -1.834389070788e-02
    65    6.391826318059e-15
    66    8.558975799723e-03
    67    1.261172772729e-02
    68   -6.077196233969e-03
    69   -2.817971002897e-17
    70   -2.780211798297e-03
    71    1.724290886006e-15
    72    1.057696580621e-01
    73    2.520248544325e-02
    74    5.647395838320e-03
    75   -2.716208043877e-15
    76    1.026309347913e-02
    77    7.001050377776e-02
    78   -1.428321373331e-01
    79   -7.912312650123e-02
    80   -9.049436506078e-02
    81   -2.204136949753e-15
    82   -2.007614713457e-02
    83   -1.834389070760e-02
    84   -7.408571259041e-15
    85   -8.558975799394e-03
    86   -1.261172772725e-02
    87   -6.077196233990e-03
    88    4.550532577221e-16
    89    2.780211798024e-03
    90    1.674319593561e-15
    91   -1.057696580654e-01
    92   -2.520248544406e-02
    93    5.647395838553e-03
    94    4.114618283854e-15
    95   -1.026309347940e-02
Sym=X
Ene= 1.979487
Spin=Alpha
Occup=1
     1    1.193105226857e-01
     2   -2.646226020244e-01
     3   -1.924094002562e-01
     4   -9.020188179333e-13
     5   -8.073178273719e-15
     6   -1.114926035153e-01
     7   -3.751873664839e-13
     8   -4.159053058648e-15
     9   -6.015958900533e-03
    10   -1.569294385928e-04
    11    9.703594047784e-14
    12    8.652250937035e-16
    13   -5.209389043021e-03
    14   -6.105384503904e-16
    15   -1.826742483964e-01
    16   -2.837447736254e-02
    17   -7.524114554335e-15
    18   -5.031026202977e-16
    19    2.822759323192e-02
    20    6.302066092937e-03
    21   -8.094419899757e-03
    22    1.052603330463e-02
    23    7.647276803797e-03
    24   -1.196843033132e-14
    25   -9.595677538497e-02
    26   -5.096085750422e-04
    27   -4.910912878359e-15
    28   -3.426447449973e-02
    29    2.955434037644e-03
    30    1.783945542496e-02
    31   -5.674134554322e-16
    32   -2.805155839503e-03
    33    8.019158574672e-17
    34   -2.745133762808e-02
    35   -6.499717302413e-03
    36    4.382482202864e-03
    37   -2.555915412527e-16
    38    7.603313230494e-04
    39    6.302066090898e-03
    40   -8.094419895709e-03
    41    1.052603330727e-02
    42   -7.647276805106e-03
    43   -5.530985048014e-16
    44   -9.595677538516e-02
    45    5.096085752006e-04
    46    1.121074632549e-15
    47   -3.426447450019e-02
    48    2.955434037811e-03
    49   -1.783945542498e-02
    50    3.468190991211e-16
    51   -2.805155839431e-03
    52   -1.711193869485e-15
    53   -2.745133762493e-02
    54   -6.499717301239e-03
    55   -4.382482202570e-03
    56   -1.594599090872e-16
    57    7.603313229078e-04
    58   -1.068718595374e-01
    59    2.181966076627e-01
    60    1.187376229403e-01
    61    1.196511708185e-02
    62   -1.201927584251e-15
    63   -6.159255246106e-02
    64    1.167539027075e-02
    65    2.973367692054e-15
    66   -1.954843038001e-02
    67   -2.458199391835e-03
    68   -9.975234462858e-04
    69    4.995084219854e-16
    70    1.300428082018e-02
    71    6.969548994527e-16
    72    1.520324910324e-01
    73    3.479277841197e-02
    74    1.088007124821e-02
    75    4.432879850845e-16
    76    1.235378570202e-02
    77   -1.068718595360e-01
    78    2.181966076598e-01
    79    1.187376229388e-01
    80   -1.196511708365e-02
    81   -8.141503423091e-15
    82   -6.159255246122e-02
    83   -1.167539027124e-02
    84   -9.834143685903e-15
    85   -1.954843038003e-02
    86   -2.458199392061e-03
    87    9.975234461888e-04
    88   -2.745375018859e-15
    89    1.300428082024e-02
    90    1.295198063109e-15
    91    1.520324910302e-01
    92    3.479277841143e-02
    93   -1.088007124808e-02
    94   -5.294238686010e-16
    95    1.235378570181e-02
Sym=X
Ene= 1.971638
Spin=Alpha
Occup=1
     1    8.435152577364e-02
     2   -1.962389877298e-01
     3   -1.910831396488e-01
     4    5.149044267023e-13
     5   -1.052487336589e-15
     6   -1.616621306612e-01
     7    2.362032785604e-13
     8    4.596015178360e-16
     9   -2.529422637677e-02
    10   -9.221754722357e-03
    11   -3.739121824105e-14
    12    7.131883128843e-16
    13    8.235447604064e-03
    14   -1.168711515955e-15
    15   -2.006331586824e-01
    16   -4.487692340275e-02
    17   -5.364597749042e-16
    18   -2.907138683181e-16
    19    2.660048752523e-02
    20   -8.172208552474e-02
    21    1.825417262718e-01
    22    1.712988985548e-01
    23    1.418846875119e-01
    24   -8.260564251918e-15
    25    2.241724027106e-02
    26    2.172472199506e-02
    27   -1.240174020648e-15
    28   -3.834481249589e-03
    29   -7.210192796568e-03
    30    1.527973428726e-02
    31   -5.042796679831e-16
    32    4.384461913510e-03
    33   -4.993449800618e-16
    34    2.140075832505e-01
    35    6.360989648548e-02
    36   -1.566086281435e-02
    37   -9.942514254184e-16
    38   -7.019907834195e-03
    39   -8.172208552405e-02
    40    1.825417262703e-01
    41    1.712988985532e-01
    42   -1.418846875110e-01
    43    2.729852876767e-15
    44    2.241724027007e-02
    45   -2.172472199499e-02
    46    5.281059519978e-15
    47   -3.834481249467e-03