[Molden Format]
[Atoms] (Angs)
  N      1    7      0.00000000     -0.00000000      1.11738466
  H      2    1      0.00000000     -0.00000000      2.12136066
  C      3    6      1.12201016     -0.00000000      0.33463977
  H      4    1      2.10556415     -0.00000000      0.76898420
  C      5    6     -1.12201016      0.00000000      0.33463977
  H      6    1     -2.10556415      0.00000000      0.76898420
  C      7    6     -0.70797599     -0.00000000     -0.98428136
  H      8    1     -1.35674211      0.00000000     -1.84266130
  C      9    6      0.70797599      0.00000000     -0.98428136
  H     10    1      1.35674211      0.00000000     -1.84266130
[GTO]
1    0
S    7    1.000000
   9.04600000E+03    7.00000000E-04 
   1.35700000E+03    5.38983000E-03 
   3.09300000E+02    2.74060000E-02 
   8.77300000E+01    1.03262320E-01 
   2.85600000E+01    2.78905240E-01 
   1.02100000E+01    4.50217400E-01 
   3.83800000E+00    2.79943000E-01 
S    7    1.000000
   9.04600000E+03    5.00000000E-08 
   1.35700000E+03   -2.97600000E-05 
   8.77300000E+01   -1.97900000E-03 
   2.85600000E+01   -6.51949000E-03 
   1.02100000E+01   -6.00100000E-02 
   3.83800000E+00   -6.09975300E-02 
   7.46600000E-01    5.52378750E-01 
S    1    1.000000
   2.24800000E-01    1.00000000E+00 
P    3    1.000000
   1.35500000E+01    3.99190000E-02 
   2.91700000E+00    2.17169000E-01 
   7.97300000E-01    5.10319000E-01 
P    1    1.000000
   2.18500000E-01    1.00000000E+00 
D    1    1.000000
   8.17000000E-01    1.00000000E+00 

2    0
S    3    1.000000
   1.30100000E+01    1.96850000E-02 
   1.96200000E+00    1.37977000E-01 
   4.44600000E-01    4.78148000E-01 
S    1    1.000000
   1.22000000E-01    1.00000000E+00 
P    1    1.000000
   7.27000000E-01    1.00000000E+00 

3    0
S    7    1.000000
   6.66500000E+03    6.91990000E-04 
   1.00000000E+03    5.32976000E-03 
   2.28000000E+02    2.70770000E-02 
   6.47100000E+01    1.01768130E-01 
   2.10600000E+01    2.74902850E-01 
   7.49500000E+00    4.50094590E-01 
   2.79700000E+00    2.86933450E-01 
S    7    1.000000
   6.66500000E+03    3.10000000E-07 
   1.00000000E+03   -2.72700000E-05 
   6.47100000E+01   -1.80535000E-03 
   2.10600000E+01   -5.86561000E-03 
   7.49500000E+00   -5.51393100E-02 
   2.79700000E+00   -6.69876600E-02 
   5.21500000E-01    5.47743760E-01 
S    1    1.000000
   1.59600000E-01    1.00000000E+00 
P    3    1.000000
   9.43900000E+00    3.81090000E-02 
   2.00200000E+00    2.09480000E-01 
   5.45600000E-01    5.08557000E-01 
P    1    1.000000
   1.51700000E-01    1.00000000E+00 
D    1    1.000000
   5.50000000E-01    1.00000000E+00 

4    0
S    3    1.000000
   1.30100000E+01    1.96850000E-02 
   1.96200000E+00    1.37977000E-01 
   4.44600000E-01    4.78148000E-01 
S    1    1.000000
   1.22000000E-01    1.00000000E+00 
P    1    1.000000
   7.27000000E-01    1.00000000E+00 

5    0
S    7    1.000000
   6.66500000E+03    6.91990000E-04 
   1.00000000E+03    5.32976000E-03 
   2.28000000E+02    2.70770000E-02 
   6.47100000E+01    1.01768130E-01 
   2.10600000E+01    2.74902850E-01 
   7.49500000E+00    4.50094590E-01 
   2.79700000E+00    2.86933450E-01 
S    7    1.000000
   6.66500000E+03    3.10000000E-07 
   1.00000000E+03   -2.72700000E-05 
   6.47100000E+01   -1.80535000E-03 
   2.10600000E+01   -5.86561000E-03 
   7.49500000E+00   -5.51393100E-02 
   2.79700000E+00   -6.69876600E-02 
   5.21500000E-01    5.47743760E-01 
S    1    1.000000
   1.59600000E-01    1.00000000E+00 
P    3    1.000000
   9.43900000E+00    3.81090000E-02 
   2.00200000E+00    2.09480000E-01 
   5.45600000E-01    5.08557000E-01 
P    1    1.000000
   1.51700000E-01    1.00000000E+00 
D    1    1.000000
   5.50000000E-01    1.00000000E+00 

6    0
S    3    1.000000
   1.30100000E+01    1.96850000E-02 
   1.96200000E+00    1.37977000E-01 
   4.44600000E-01    4.78148000E-01 
S    1    1.000000
   1.22000000E-01    1.00000000E+00 
P    1    1.000000
   7.27000000E-01    1.00000000E+00 

7    0
S    7    1.000000
   6.66500000E+03    6.91990000E-04 
   1.00000000E+03    5.32976000E-03 
   2.28000000E+02    2.70770000E-02 
   6.47100000E+01    1.01768130E-01 
   2.10600000E+01    2.74902850E-01 
   7.49500000E+00    4.50094590E-01 
   2.79700000E+00    2.86933450E-01 
S    7    1.000000
   6.66500000E+03    3.10000000E-07 
   1.00000000E+03   -2.72700000E-05 
   6.47100000E+01   -1.80535000E-03 
   2.10600000E+01   -5.86561000E-03 
   7.49500000E+00   -5.51393100E-02 
   2.79700000E+00   -6.69876600E-02 
   5.21500000E-01    5.47743760E-01 
S    1    1.000000
   1.59600000E-01    1.00000000E+00 
P    3    1.000000
   9.43900000E+00    3.81090000E-02 
   2.00200000E+00    2.09480000E-01 
   5.45600000E-01    5.08557000E-01 
P    1    1.000000
   1.51700000E-01    1.00000000E+00 
D    1    1.000000
   5.50000000E-01    1.00000000E+00 

8    0
S    3    1.000000
   1.30100000E+01    1.96850000E-02 
   1.96200000E+00    1.37977000E-01 
   4.44600000E-01    4.78148000E-01 
S    1    1.000000
   1.22000000E-01    1.00000000E+00 
P    1    1.000000
   7.27000000E-01    1.00000000E+00 

9    0
S    7    1.000000
   6.66500000E+03    6.91990000E-04 
   1.00000000E+03    5.32976000E-03 
   2.28000000E+02    2.70770000E-02 
   6.47100000E+01    1.01768130E-01 
   2.10600000E+01    2.74902850E-01 
   7.49500000E+00    4.50094590E-01 
   2.79700000E+00    2.86933450E-01 
S    7    1.000000
   6.66500000E+03    3.10000000E-07 
   1.00000000E+03   -2.72700000E-05 
   6.47100000E+01   -1.80535000E-03 
   2.10600000E+01   -5.86561000E-03 
   7.49500000E+00   -5.51393100E-02 
   2.79700000E+00   -6.69876600E-02 
   5.21500000E-01    5.47743760E-01 
S    1    1.000000
   1.59600000E-01    1.00000000E+00 
P    3    1.000000
   9.43900000E+00    3.81090000E-02 
   2.00200000E+00    2.09480000E-01 
   5.45600000E-01    5.08557000E-01 
P    1    1.000000
   1.51700000E-01    1.00000000E+00 
D    1    1.000000
   5.50000000E-01    1.00000000E+00 

10    0
S    3    1.000000
   1.30100000E+01    1.96850000E-02 
   1.96200000E+00    1.37977000E-01 
   4.44600000E-01    4.78148000E-01 
S    1    1.000000
   1.22000000E-01    1.00000000E+00 
P    1    1.000000
   7.27000000E-01    1.00000000E+00 

[MO]
Sym=X
Ene= 2.000000
Spin=Alpha
Occup=1
     1    1.483584023343e-01
     2    2.246634054064e-03
     3    5.417431092632e-04
     4   -1.395439820033e-04
     5   -1.496572959521e-14
     6    9.641065279582e-05
     7    8.159267955470e-04
     8   -1.070073427517e-14
     9   -9.149472029878e-04
    10    1.006036450831e-04
    11   -2.342324711201e-04
    12    3.329166592479e-16
    13    1.386353053880e-04
    14   -4.915311620117e-16
    15    6.662555168081e-05
    16    2.024301069845e-04
    17   -1.125782105921e-04
    18   -2.739264488575e-16
    19    1.557865281513e-04
    20   -5.938834194793e-01
    21   -1.072339970163e-02
    22    4.011438598269e-03
    23    3.871773740618e-04
    24   -9.557348042928e-15
    25   -5.533202768107e-04
    26   -6.409826385996e-05
    27   -4.415373177815e-15
    28   -1.018694745017e-03
    29    7.539011732524e-06
    30   -2.784162099328e-04
    31    3.753021114704e-18
    32   -6.795135859698e-04
    33    1.146614837991e-15
    34    5.694417295007e-04
    35   -6.357081012637e-04
    36   -4.403322918805e-04
    37   -6.915584214064e-16
    38   -9.285109979079e-05
    39    2.712003488887e-01
    40    5.208339046139e-03
    41   -5.255436482100e-03
    42    1.262130377621e-04
    43   -8.452109557788e-15
    44    1.514036531400e-04
    45   -1.838993998105e-03
    46   -5.695041608661e-15
    47    2.444536917277e-03
    48    1.181030108739e-04
    49   -4.369289548180e-04
    50   -5.066030794544e-16
    51    3.506691311350e-04
    52   -1.682846295032e-15
    53   -5.247637201053e-04
    54   -5.627189001843e-04
    55   -3.249496611404e-04
    56   -7.531770415580e-16
    57   -1.967506149883e-05
    58   -7.301029902210e-01
    59   -1.365212346383e-02
    60    8.902292379260e-03
    61   -1.155322895681e-05
    62   -5.208403076022e-15
    63   -4.012859840747e-05
    64    4.872059554022e-04
    65   -1.931509228657e-15
    66    2.509959379136e-03
    67   -4.553615220662e-04
    68   -6.977856471731e-04
    69   -5.857680243883e-16
    70   -4.474670586286e-04
    71    1.650149533694e-16
    72    7.680727170000e-04
    73   -3.630869821733e-04
    74    3.993068050626e-04
    75    3.170597805883e-17
    76    4.661240279783e-04
    77    1.176042019808e-01
    78    2.537922298112e-03
    79   -3.852195721868e-03
    80    2.070828151806e-07
    81   -6.728659544646e-15
    82    5.370051025466e-05
    83    4.647383313857e-04
    84   -5.458810462383e-15
    85   -1.353780069206e-03
    86    3.082225746305e-04
    87   -6.232129698856e-04
    88   -8.184966313045e-16
    89    4.826455707330e-04
    90    1.711291496611e-15
    91   -4.918177688081e-04
    92   -2.671837330944e-04
    93    2.219179643113e-04
    94   -3.195035799296e-16
    95   -3.395480070560e-04
Sym=X
Ene= 2.000000
Spin=Alpha
Occup=1
     1    8.725990236528e-01
     2    1.577365439355e-02
     3   -1.000193495645e-02
     4    4.504080943276e-06
     5    1.974196113199e-14
     6   -7.752206368038e-05
     7   -4.494892476903e-05
     8    1.331672397532e-14
     9    3.730602536791e-03
    10    1.155908118978e-04
    11    5.096939164694e-06
    12    4.658811035752e-16
    13   -2.450327967456e-04
    14   -5.050055431736e-16
    15   -6.046769987293e-04
    16   -2.742586234333e-04
    17    6.855328148293e-06
    18    1.788452874499e-17
    19    4.753195663531e-04
    20    3.525935390832e-01
    21    6.356206293652e-03
    22    2.271228208673e-03
    23   -3.425644906772e-04
    24    1.059790019512e-14
    25    4.580611570357e-04
    26   -3.197626789407e-03
    27    4.963813580670e-15
    28   -2.498038592865e-04
    29   -3.742172392440e-06
    30    3.274251723592e-04
    31    1.525619611435e-15
    32    3.578577280756e-04
    33   -1.917119374021e-15
    34   -2.652125163297e-04
    35    1.360508162373e-03
    36    3.704306604629e-04
    37    3.412176917696e-16
    38   -1.749035710972e-05
    39    3.267438304890e-01
    40    5.894368917144e-03
    41    2.384282590308e-03
    42    3.311375166690e-04
    43    8.695423094719e-15
    44    4.372670172758e-04
    45    3.186731289130e-03
    46    6.965560666041e-15
    47   -3.132800028934e-04
    48   -5.817196197346e-06
    49   -3.282742451105e-04
    50    1.622432865076e-15
    51    3.493382690866e-04
    52    1.432434824185e-15
    53   -2.486207741378e-04
    54    1.339873171784e-03
    55   -3.581616239720e-04
    56    3.751702163330e-16
    57   -1.599607833474e-05
    58    1.867446216880e-02
    59    2.544194592540e-04
    60   -1.165049527352e-03
    61    1.248453853138e-04
    62    3.611143267281e-15
    63   -1.385755135805e-04
    64   -6.308182110377e-04
    65    1.908308310091e-15
    66   -9.868081467692e-04
    67   -1.081413366628e-04
    68   -2.467492525828e-05
    69    1.989239548136e-15
    70    2.026470366786e-05
    71   -2.028027211174e-15
    72   -8.228527671939e-05
    73   -2.690235753128e-04
    74    3.306954660504e-05
    75   -6.705662534517e-16
    76    5.698969679979e-05
    77    4.307521432365e-02
    78    7.014381269905e-04
    79   -1.395962023838e-03
    80   -1.243926591724e-04
    81    6.092593963805e-15
    82   -1.389027149775e-04
    83    7.534993240743e-04
    84    1.905388869166e-15
    85   -9.703359221674e-04
    86   -1.012809321640e-04
    87    1.367692482294e-05
    88    8.306623731412e-16
    89    3.318149638639e-05
    90   -2.121301859957e-15
    91   -1.017411860557e-04
    92   -2.549604458007e-04
    93   -2.770704854300e-05
    94   -4.088316525663e-16
    95    4.219335731206e-05
Sym=X
Ene= 2.000000
Spin=Alpha
Occup=1
     1   -3.751309608373e-01
     2   -5.959794276900e-03
     3    5.858859508588e-04
     4    1.515614838374e-05
     5   -4.007569281780e-15
     6   -1.217354196916e-04
     7   -1.355620617036e-04
     8   -2.581694603741e-15
     9    8.961822253496e-04
    10   -5.595578933195e-04
    11    1.922767918556e-05
    12   -8.600386014661e-16
    13   -3.376598901049e-04
    14    1.593189788992e-15
    15    2.116256919146e-04
    16   -2.714116164796e-04
    17    2.035233290251e-05
    18    8.190720372006e-16
    19   -5.451357627579e-04
    20    5.600800814045e-01
    21    1.013989488898e-02
    22   -3.791829515988e-03
    23   -3.155670400089e-04
    24   -4.346181791181e-15
    25    4.214267505861e-04
    26   -2.890681617252e-04
    27   -2.243856663264e-15
    28    4.170464472978e-04
    29   -1.141069537895e-05
    30    2.322558877545e-04
    31   -1.514746620009e-15
    32    7.865262023550e-04
    33    2.164334715718e-15
    34   -4.743878299838e-04
    35    7.903593513840e-04
    36    4.455924478798e-04
    37   -8.487565513420e-16
    38    1.738881321531e-04
    39    4.713490604148e-01
    40    8.541654726915e-03
    41   -3.254566672235e-03
    42    2.727794394034e-04
    43   -3.783823069001e-15
    44    3.498091076623e-04
    45    3.133698449168e-04
    46   -2.950175435229e-15
    47    1.627292161745e-04
    48   -1.965222052595e-05
    49   -2.149337851692e-04
    50   -9.572301265366e-17
    51    7.370102514043e-04
    52    5.477605672819e-16
    53   -4.027714883471e-04
    54    7.363316474273e-04
    55   -3.938275581638e-04
    56   -7.216097771336e-18
    57    1.756657160159e-04
    58   -4.178462299688e-01
    59   -7.635162807869e-03
    60    3.049776031758e-03
    61    6.907237371003e-05
    62   -5.639601479131e-15
    63    3.470676593103e-05
    64   -1.347770926551e-04
    65   -1.904766439996e-15
    66    4.835302841407e-04
    67   -3.985083467187e-04
    68   -2.785721280926e-04
    69   -3.558425270154e-16
    70   -1.350872016946e-04
    71   -7.655103184299e-16
    72    4.097881866064e-04
    73   -4.150287663303e-04
    74    2.488344896448e-04
    75   -1.087959205111e-15
    76    2.589699125776e-04
    77   -3.793719941077e-01
    78   -6.948281633366e-03
    79    2.814441666843e-03
    80   -6.762187941839e-05
    81   -5.533685956144e-15
    82    3.132860835306e-05
    83    4.182798348174e-04
    84   -3.322355067144e-15
    85    6.302001005688e-04
    86   -4.019822840133e-04
    87    2.867774020548e-04
    88   -1.890988647831e-15
    89   -1.278178246146e-04
    90    2.009543632353e-16
    91    3.949998175775e-04
    92   -3.821707133013e-04
    93   -2.522127854562e-04
    94   -1.498862897995e-15
    95    2.435744450435e-04
Sym=X
Ene= 2.000000
Spin=Alpha
Occup=1
     1    2.657965241402e-01
     2    4.034638423730e-03
     3    8.952911527144e-04
     4    8.105607544464e-05
     5   -1.494762458301e-15
     6    1.677298761007e-04
     7   -4.644324642074e-04
     8   -6.423349983856e-16
     9   -1.583895650685e-03
    10    1.962447869575e-04
    11    1.373158462155e-04
    12    5.941543727356e-16
    13    2.495161100790e-04
    14   -5.156223394205e-16
    15    1.021016467736e-04
    16    3.531515034017e-04
    17    6.374660017028e-05
    18   -9.431441827154e-16
    19    2.873798735882e-04
    20   -4.481282175058e-02
    21   -4.554042651541e-04
    22   -3.609446257806e-03
    23    8.342416949961e-05
    24   -5.923810386690e-16
    25   -1.514938950161e-04
    26    2.078467818387e-03
    27    1.572614649892e-16
    28    2.198690193923e-03
    29    1.385302487729e-04
    30    3.349760971067e-04
    31    1.423789032390e-16
    32   -8.518557862074e-06
    33    2.073999921234e-16
    34   -2.628642264087e-04
    35   -1.027743681896e-03
    36    1.072540345737e-04
    37    3.976304454557e-16
    38   -8.070993687857e-05
    39   -5.483678582713e-01
    40   -9.736347290540e-03
    41    1.868408617418e-03
    42   -3.842623067045e-04
    43   -1.506084998506e-16
    44   -5.618401642939e-04
    45   -9.360785184731e-04
    46   -6.582057926446e-16
    47    1.623419992625e-04
    48    7.354444119911e-05
    49    9.277302062129e-05
    50   -3.613132002758e-16
    51   -6.195509119571e-04
    52    3.631578200579e-16
    53    3.822880701374e-04
    54   -1.060801111300e-03
    55    3.436226397948e-04
    56    1.142015641095e-16
    57   -1.251855127092e-04
    58   -2.338821836626e-01
    59   -3.998519630872e-03
    60    2.182637187435e-04
    61   -1.019356803613e-05
    62   -7.944904354022e-18
    63    3.789880760730e-05
    64   -2.819028722054e-04
    65    4.274056777908e-16
    66   -2.073272506996e-04
    67    1.266714833047e-04
    68    3.490060211893e-04
    69   -2.857642129808e-16
    70    3.170787697322e-04
    71   -2.943318821741e-16
    72   -1.697356774117e-04
    73   -4.754669428961e-04
    74   -5.084311990075e-05
    75   -5.347387876834e-16
    76   -1.509809656316e-04
    77   -7.527317658578e-01
    78   -1.389812682170e-02
    79    7.955206551085e-03
    80    1.673993772816e-05
    81    3.039390391584e-17
    82   -1.798334002866e-05
    83   -3.494278224961e-04
    84    3.018053409208e-16
    85    2.092282211623e-03
    86   -3.329647991256e-04
    87    4.457188647956e-04
    88    1.041339479986e-15
    89   -2.451286303777e-04
    90   -4.188201085587e-16
    91    5.928073472037e-04
    92   -5.399405611543e-04
    93   -3.229887216491e-04
    94    1.336007145061e-15
    95    3.378514924298e-04
Sym=X
Ene= 2.000000
Spin=Alpha
Occup=1
     1    5.283491545860e-03
     2    3.328427807015e-05
     3    2.267417531026e-04
     4    1.728748822252e-04
     5   -3.316262161693e-15
     6    1.187105162069e-05
     7   -1.748124250825e-03
     8   -1.930646369297e-15
     9   -1.716652932519e-04
    10    3.523885596962e-05
    11    1.925988099717e-04
    12    2.931620899778e-16
    13    3.090209987474e-05
    14   -5.603041498663e-17
    15    3.108142505216e-06
    16    2.875875330323e-05
    17    2.670840380460e-04
    18   -6.792532176790e-16
    19    2.641487542173e-05
    20    4.495697869767e-01
    21    8.015785533544e-03
    22   -1.900832509761e-03
    23   -1.858803816705e-04
    24    1.258432548521e-15
    25    3.574045883986e-04
    26   -1.343832923653e-04
    27    8.861863680866e-17
    28    1.192323824846e-03
    29    4.137989834430e-05
    30   -5.197191278235e-05
    31    9.683867309958e-17
    32    8.680389020585e-05
    33    2.655238790256e-16
    34   -2.717109184868e-04
    35    3.110950776636e-04
    36    1.903628221812e-04
    37   -1.928571475406e-16
    38   -4.308175809842e-05
    39   -5.400390679741e-01
    40   -9.645912820961e-03
    41    2.209475893893e-03
    42   -2.463787441749e-04
    43    7.943302699875e-16
    44   -4.383103990276e-04
    45   -3.727928756900e-04
    46   -1.304395466708e-15
    47   -1.184568503760e-03
    48   -3.642546889035e-05
    49   -1.007150813356e-05
    50    1.720698116020e-16
    51   -2.097577322966e-04
    52   -3.557077192414e-16
    53    3.420694495710e-04
    54   -5.034048146135e-04
    55    2.652485019110e-04
    56   -1.234015733129e-16
    57    1.901616882077e-05
    58   -4.818814942786e-01
    59   -8.838438944860e-03
    60    4.725111266266e-03
    61    1.070284460048e-06
    62    4.254114308302e-15
    63    6.146106199676e-06
    64    2.484255964729e-03
    65    4.816954575735e-15
    66   -2.481214907838e-04
    67   -1.242452034681e-04
    68   -2.262017879401e-04
    69    6.284775265534e-16
    70   -2.661426011809e-04
    71   -7.284266394027e-16
    72    3.897962362243e-04
    73   -2.549973035997e-04
    74    1.035839567094e-04
    75   -3.238976602309e-16
    76    2.930120974644e-04
    77    5.183539239474e-01
    78    9.511964350877e-03
    79   -4.928395719166e-03
    80    1.641261262734e-05
    81    5.781028146106e-15
    82   -3.088684293962e-06
    83    2.413226528821e-03
    84    2.863310882101e-15
    85    2.509332682149e-04
    86    1.778364565922e-04
    87   -2.619169614750e-04
    88    3.884867516603e-16
    89    2.824599243223e-04
    90   -5.400361422899e-16
    91   -4.309325187331e-04
    92    3.058838281624e-04
    93    1.335084819603e-04
    94   -5.767545331376e-17
    95   -3.251014028702e-04
Sym=X
Ene= 1.985736
Spin=Alpha
Occup=1
     1    1.383906280253e-01
     2   -2.860880089033e-01
     3   -2.464617145292e-01
     4    2.075481341644e-13
     5    1.700239877898e-15
     6    5.073996601603e-03
     7    6.969560662441e-14
     8    2.084540334765e-15
     9    3.481749150324e-02
    10   -4.569837939689e-03
    11   -2.090811212264e-14
    12    9.340664460771e-16
    13   -9.511877185252e-03
    14   -2.465613741279e-16
    15   -1.296763943808e-01
    16   -1.809754959984e-02
    17    6.439132628558e-15
    18   -4.483380535226e-16
    19    2.048543674326e-02
    20    8.994444297695e-02
    21   -1.836543429907e-01
    22   -5.896732533136e-02
    23    4.521354925943e-02
    24   -2.081673805248e-16
    25   -6.773729540098e-03
    26   -2.292278379496e-02
    27   -3.731006988468e-16
    28   -1.265001283690e-02
    29   -6.684940896485e-03
    30    8.591341022311e-03
    31    9.274748471869e-16
    32   -9.462034814885e-03
    33   -7.898906939059e-16
    34   -6.924430319795e-02
    35   -9.662991057129e-04
    36    1.004987809210e-02
    37    8.058790158871e-16
    38    3.703634895055e-03
    39    8.994444297765e-02
    40   -1.836543429916e-01
    41   -5.896732533200e-02
    42   -4.521354925931e-02
    43   -6.350325758156e-16
    44   -6.773729540008e-03
    45    2.292278379487e-02
    46   -1.896031507725e-15
    47   -1.265001283678e-02
    48   -6.684940896529e-03
    49   -8.591341022302e-03
    50    5.420509944771e-16
    51   -9.462034814905e-03
    52   -3.708444673107e-16
    53   -6.924430319843e-02
    54   -9.662991058855e-04
    55   -1.004987809215e-02
    56   -7.683675765663e-17
    57    3.703634895086e-03
    58    7.235450129408e-02
    59   -1.463009542784e-01
    60   -9.980432171000e-02
    61   -1.788984459080e-02
    62   -3.902399547760e-15
    63   -3.409515954641e-02
    64   -3.360120858866e-03
    65   -1.416561590132e-15
    66   -1.341742842581e-02
    67   -4.755676773848e-03
    68    1.801073748247e-03
    69    3.984122932201e-16
    70   -6.191960427326e-03
    71   -3.047410918280e-16
    72   -5.311274183133e-02
    73   -8.973095901397e-03
    74   -4.376455010906e-03
    75    3.927985143186e-16
    76   -5.808125646089e-03
    77    7.235450129377e-02
    78   -1.463009542779e-01
    79   -9.980432170970e-02
    80    1.788984459107e-02
    81   -2.950179182530e-15
    82   -3.409515954620e-02
    83    3.360120858872e-03
    84   -2.086740503980e-15
    85   -1.341742842581e-02
    86   -4.755676773804e-03
    87   -1.801073748214e-03
    88   -1.064587949212e-16
    89   -6.191960427325e-03
    90   -4.767406303757e-17
    91   -5.311274183108e-02
    92   -8.973095901372e-03
    93    4.376455010899e-03
    94   -8.016303506441e-16
    95   -5.808125646057e-03
Sym=X
Ene= 1.981028
Spin=Alpha
Occup=1
     1   -1.121195392189e-01
     2    2.414111211173e-01
     3    1.822623004203e-01
     4   -1.848282576788e-13
     5    6.422012415786e-15
     6    8.516707717451e-02
     7   -1.340780680155e-13
     8    3.683373052695e-15
     9    6.649677309136e-04
    10    1.935731120518e-04
    11    1.935319090137e-14
    12   -5.226542483289e-16
    13    3.653653564449e-03
    14    1.531890756590e-16
    15    1.692249941866e-01
    16    2.801106433322e-02
    17    9.963278964859e-16
    18    3.448054194422e-16
    19   -2.532804223235e-02
    20    3.353471410099e-03
    21   -1.302967382699e-02
    22   -9.898878120980e-03
    23   -2.054134773525e-02
    24    5.420593665943e-15
    25    1.075625914931e-01
    26   -6.854086361382e-03
    27    1.460965413294e-15
    28    3.608489913549e-02
    29   -6.135253563011e-03
    30   -1.878878303633e-02
    31    5.532075085063e-16
    32    3.630458899659e-03
    33    1.480091979610e-16
    34    9.347006243906e-03
    35   -2.228319338090e-03
    36   -2.699145962251e-03
    37   -6.288742903806e-17
    38    6.476179513088e-04
    39    3.353471409849e-03
    40   -1.302967382629e-02
    41   -9.898878120666e-03
    42    2.054134773503e-02
    43    5.130475244794e-15
    44    1.075625914932e-01
    45    6.854086361245e-03
    46    3.536348381114e-15
    47    3.608489913547e-02
    48   -6.135253562999e-03
    49    1.878878303632e-02
    50   -5.707012013250e-16
    51    3.630458899672e-03
    52    1.771991879236e-15
    53    9.347006244451e-03
    54   -2.228319337972e-03
    55    2.699145962301e-03
    56    5.825177653172e-16
    57    6.476179512867e-04
    58    1.140117662528e-01
    59   -2.286904563852e-01
    60   -1.317046661314e-01
    61   -1.170631459223e-02
    62    5.868973437631e-15
    63    4.698700189748e-02
    64   -1.401724287235e-02
    65    1.305122223130e-15
    66    9.482770388557e-03
    67    2.930571377437e-03
    68    1.079428000055e-03
    69   -1.800216274368e-16
    70   -1.260323196161e-02
    71   -5.766382154107e-16
    72   -1.498165092360e-01
    73   -3.855561953050e-02
    74   -1.083707596846e-02
    75   -5.007139216942e-16
    76   -1.283270750109e-02
    77    1.140117662529e-01
    78   -2.286904563854e-01
    79   -1.317046661314e-01
    80    1.170631459213e-02
    81    5.881331931284e-15
    82    4.698700189733e-02
    83    1.401724287237e-02
    84    6.815169979765e-15
    85    9.482770388414e-03
    86    2.930571377403e-03
    87   -1.079428000079e-03
    88    2.391219129080e-15
    89   -1.260323196160e-02
    90   -1.645880983115e-15
    91   -1.498165092360e-01
    92   -3.855561953056e-02
    93    1.083707596846e-02
    94    8.327199975156e-16
    95   -1.283270750110e-02
Sym=X
Ene= 1.978429
Spin=Alpha
Occup=1
     1   -4.312060893340e-13
     2    9.215784604866e-13
     3    8.776034661477e-13
     4    9.809456040294e-02
     5    3.632905377167e-15
     6    3.069792969752e-13
     7    5.141719012461e-02
     8    2.668893924276e-15
     9    2.553986441049e-15
    10    2.227658829388e-14
    11   -1.070752498953e-02
    12    5.345090741775e-17
    13    9.329514436339e-15
    14    5.561007061102e-16
    15    6.451489775648e-13
    16    6.343417258834e-14
    17    7.895170143616e-04
    18   -1.923207352350e-16
    19   -8.790897370813e-14
    20   -1.113840167722e-01
    21    2.345928420920e-01
    22    1.318879952268e-01
    23    7.858200868762e-02
    24    1.456820334655e-15
    25   -3.187691317177e-03
    26    1.296079464221e-02
    27   -2.324060075642e-15
    28   -1.581136800616e-02
    29    9.649638923824e-03
    30    1.793469814970e-03
    31    1.943308494218e-15
    32    4.562514328510e-03
    33    5.527815681477e-16
    34    1.759025405410e-01
    35    4.710386945073e-02
    36   -1.689762817704e-02
    37    6.259235076418e-16
    38   -7.760620612941e-03
    39    1.113840167722e-01
    40   -2.345928420919e-01
    41   -1.318879952271e-01
    42    7.858200868812e-02
    43    1.118875966061e-15
    44    3.187691317379e-03
    45    1.296079464218e-02
    46    5.166115458210e-15
    47    1.581136800626e-02
    48   -9.649638923798e-03
    49    1.793469815072e-03
    50   -1.355574907796e-15
    51   -4.562514328488e-03
    52    1.209122644503e-15
    53   -1.759025405412e-01
    54   -4.710386945082e-02
    55   -1.689762817704e-02
    56   -1.055928285341e-15
    57    7.760620612946e-03
    58    7.288067480474e-02
    59   -1.479887391672e-01
    60   -9.084873083871e-02
    61    9.658386207103e-02
    62   -8.902025531011e-16
    63   -5.195798355408e-03
    64    2.098290363398e-02
    65   -6.048233970703e-15
    66   -1.021540759070e-02
    67   -1.226877359308e-02
    68    5.387445548119e-03
    69   -1.259856537719e-15
    70    1.577634468425e-03
    71   -2.226904436753e-15
    72   -1.233242410088e-01
    73   -3.431746557562e-02
    74   -6.484428777370e-03
    75    1.028224669120e-15
    76   -1.116240486695e-02
    77   -7.288067480493e-02
    78    1.479887391673e-01
    79    9.084873083880e-02
    80    9.658386207094e-02
    81    1.111476888788e-15
    82    5.195798355370e-03
    83    2.098290363393e-02
    84    5.535787117865e-15
    85    1.021540759077e-02
    86    1.226877359308e-02
    87    5.387445548108e-03
    88    6.432563878281e-16
    89   -1.577634468432e-03
    90   -1.820554128007e-15
    91    1.233242410088e-01
    92    3.431746557579e-02
    93   -6.484428777374e-03
    94   -2.762040582606e-15
    95    1.116240486696e-02
Sym=X
Ene= 1.971604
Spin=Alpha
Occup=1
     1   -7.113359859256e-02
     2    1.617770722295e-01
     3    1.685148692851e-01
     4   -2.014648853066e-13
     5   -6.561051752328e-15
     6    1.312626698952e-01
     7   -8.282732633432e-14
     8   -5.601274041859e-15
     9    1.946930411165e-02
    10    1.008298162680e-02
    11    2.000976666852e-14
    12   -2.886389583768e-16
    13   -9.140604035746e-03
    14    7.577515405130e-16
    15    1.818480481337e-01
    16    4.689360337539e-02
    17   -3.863829365456e-16
    18   -1.074767208181e-17
    19   -2.216475268191e-02
    20    8.652406612391e-02
    21   -1.983664383215e-01
    22   -1.700540514858e-01
    23   -1.625039127447e-01
    24    1.113735436701e-15
    25   -3.828468839260e-02
    26   -2.503576341215e-02
    27   -4.662082693391e-15
    28    3.355305754740e-04
    29    6.707242686087e-03
    30   -1.381255706025e-02
    31    1.310104700231e-16
    32   -4.212439442606e-03
    33    9.183055890693e-16
    34   -2.319615537262e-01
    35   -7.385868193448e-02
    36    1.821376470445e-02
    37    5.514935402160e-16
    38    7.720622763942e-03
    39    8.652406612360e-02
    40   -1.983664383207e-01
    41   -1.700540514852e-01
    42    1.625039127444e-01
    43    6.314823891390e-16
    44   -3.828468839246e-02
    45    2.503576341218e-02
    46   -2.403871921116e-15
    47    3.355305754178e-04