[Molden Format]
[Atoms] (Angs)
  N      1    7      0.00000000     -0.00000000      1.11738466
  H      2    1      0.00000000     -0.00000000      2.12136066
  C      3    6      1.12201016     -0.00000000      0.33463977
  H      4    1      2.10556415     -0.00000000      0.76898420
  C      5    6     -1.12201016      0.00000000      0.33463977
  H      6    1     -2.10556415      0.00000000      0.76898420
  C      7    6     -0.70797599     -0.00000000     -0.98428136
  H      8    1     -1.35674211      0.00000000     -1.84266130
  C      9    6      0.70797599      0.00000000     -0.98428136
  H     10    1      1.35674211      0.00000000     -1.84266130
[GTO]
1    0
S    7    1.000000
   9.04600000E+03    7.00000000E-04 
   1.35700000E+03    5.38983000E-03 
   3.09300000E+02    2.74060000E-02 
   8.77300000E+01    1.03262320E-01 
   2.85600000E+01    2.78905240E-01 
   1.02100000E+01    4.50217400E-01 
   3.83800000E+00    2.79943000E-01 
S    7    1.000000
   9.04600000E+03    5.00000000E-08 
   1.35700000E+03   -2.97600000E-05 
   8.77300000E+01   -1.97900000E-03 
   2.85600000E+01   -6.51949000E-03 
   1.02100000E+01   -6.00100000E-02 
   3.83800000E+00   -6.09975300E-02 
   7.46600000E-01    5.52378750E-01 
S    1    1.000000
   2.24800000E-01    1.00000000E+00 
P    3    1.000000
   1.35500000E+01    3.99190000E-02 
   2.91700000E+00    2.17169000E-01 
   7.97300000E-01    5.10319000E-01 
P    1    1.000000
   2.18500000E-01    1.00000000E+00 
D    1    1.000000
   8.17000000E-01    1.00000000E+00 

2    0
S    3    1.000000
   1.30100000E+01    1.96850000E-02 
   1.96200000E+00    1.37977000E-01 
   4.44600000E-01    4.78148000E-01 
S    1    1.000000
   1.22000000E-01    1.00000000E+00 
P    1    1.000000
   7.27000000E-01    1.00000000E+00 

3    0
S    7    1.000000
   6.66500000E+03    6.91990000E-04 
   1.00000000E+03    5.32976000E-03 
   2.28000000E+02    2.70770000E-02 
   6.47100000E+01    1.01768130E-01 
   2.10600000E+01    2.74902850E-01 
   7.49500000E+00    4.50094590E-01 
   2.79700000E+00    2.86933450E-01 
S    7    1.000000
   6.66500000E+03    3.10000000E-07 
   1.00000000E+03   -2.72700000E-05 
   6.47100000E+01   -1.80535000E-03 
   2.10600000E+01   -5.86561000E-03 
   7.49500000E+00   -5.51393100E-02 
   2.79700000E+00   -6.69876600E-02 
   5.21500000E-01    5.47743760E-01 
S    1    1.000000
   1.59600000E-01    1.00000000E+00 
P    3    1.000000
   9.43900000E+00    3.81090000E-02 
   2.00200000E+00    2.09480000E-01 
   5.45600000E-01    5.08557000E-01 
P    1    1.000000
   1.51700000E-01    1.00000000E+00 
D    1    1.000000
   5.50000000E-01    1.00000000E+00 

4    0
S    3    1.000000
   1.30100000E+01    1.96850000E-02 
   1.96200000E+00    1.37977000E-01 
   4.44600000E-01    4.78148000E-01 
S    1    1.000000
   1.22000000E-01    1.00000000E+00 
P    1    1.000000
   7.27000000E-01    1.00000000E+00 

5    0
S    7    1.000000
   6.66500000E+03    6.91990000E-04 
   1.00000000E+03    5.32976000E-03 
   2.28000000E+02    2.70770000E-02 
   6.47100000E+01    1.01768130E-01 
   2.10600000E+01    2.74902850E-01 
   7.49500000E+00    4.50094590E-01 
   2.79700000E+00    2.86933450E-01 
S    7    1.000000
   6.66500000E+03    3.10000000E-07 
   1.00000000E+03   -2.72700000E-05 
   6.47100000E+01   -1.80535000E-03 
   2.10600000E+01   -5.86561000E-03 
   7.49500000E+00   -5.51393100E-02 
   2.79700000E+00   -6.69876600E-02 
   5.21500000E-01    5.47743760E-01 
S    1    1.000000
   1.59600000E-01    1.00000000E+00 
P    3    1.000000
   9.43900000E+00    3.81090000E-02 
   2.00200000E+00    2.09480000E-01 
   5.45600000E-01    5.08557000E-01 
P    1    1.000000
   1.51700000E-01    1.00000000E+00 
D    1    1.000000
   5.50000000E-01    1.00000000E+00 

6    0
S    3    1.000000
   1.30100000E+01    1.96850000E-02 
   1.96200000E+00    1.37977000E-01 
   4.44600000E-01    4.78148000E-01 
S    1    1.000000
   1.22000000E-01    1.00000000E+00 
P    1    1.000000
   7.27000000E-01    1.00000000E+00 

7    0
S    7    1.000000
   6.66500000E+03    6.91990000E-04 
   1.00000000E+03    5.32976000E-03 
   2.28000000E+02    2.70770000E-02 
   6.47100000E+01    1.01768130E-01 
   2.10600000E+01    2.74902850E-01 
   7.49500000E+00    4.50094590E-01 
   2.79700000E+00    2.86933450E-01 
S    7    1.000000
   6.66500000E+03    3.10000000E-07 
   1.00000000E+03   -2.72700000E-05 
   6.47100000E+01   -1.80535000E-03 
   2.10600000E+01   -5.86561000E-03 
   7.49500000E+00   -5.51393100E-02 
   2.79700000E+00   -6.69876600E-02 
   5.21500000E-01    5.47743760E-01 
S    1    1.000000
   1.59600000E-01    1.00000000E+00 
P    3    1.000000
   9.43900000E+00    3.81090000E-02 
   2.00200000E+00    2.09480000E-01 
   5.45600000E-01    5.08557000E-01 
P    1    1.000000
   1.51700000E-01    1.00000000E+00 
D    1    1.000000
   5.50000000E-01    1.00000000E+00 

8    0
S    3    1.000000
   1.30100000E+01    1.96850000E-02 
   1.96200000E+00    1.37977000E-01 
   4.44600000E-01    4.78148000E-01 
S    1    1.000000
   1.22000000E-01    1.00000000E+00 
P    1    1.000000
   7.27000000E-01    1.00000000E+00 

9    0
S    7    1.000000
   6.66500000E+03    6.91990000E-04 
   1.00000000E+03    5.32976000E-03 
   2.28000000E+02    2.70770000E-02 
   6.47100000E+01    1.01768130E-01 
   2.10600000E+01    2.74902850E-01 
   7.49500000E+00    4.50094590E-01 
   2.79700000E+00    2.86933450E-01 
S    7    1.000000
   6.66500000E+03    3.10000000E-07 
   1.00000000E+03   -2.72700000E-05 
   6.47100000E+01   -1.80535000E-03 
   2.10600000E+01   -5.86561000E-03 
   7.49500000E+00   -5.51393100E-02 
   2.79700000E+00   -6.69876600E-02 
   5.21500000E-01    5.47743760E-01 
S    1    1.000000
   1.59600000E-01    1.00000000E+00 
P    3    1.000000
   9.43900000E+00    3.81090000E-02 
   2.00200000E+00    2.09480000E-01 
   5.45600000E-01    5.08557000E-01 
P    1    1.000000
   1.51700000E-01    1.00000000E+00 
D    1    1.000000
   5.50000000E-01    1.00000000E+00 

10    0
S    3    1.000000
   1.30100000E+01    1.96850000E-02 
   1.96200000E+00    1.37977000E-01 
   4.44600000E-01    4.78148000E-01 
S    1    1.000000
   1.22000000E-01    1.00000000E+00 
P    1    1.000000
   7.27000000E-01    1.00000000E+00 

[MO]
Sym=X
Ene= 2.000000
Spin=Alpha
Occup=1
     1   -5.475952234872e-01
     2   -9.447326562296e-03
     3    4.000236287882e-03
     4    1.197673654918e-04
     5    4.144325598291e-15
     6   -6.010190006904e-05
     7   -6.719480689813e-04
     8    3.111601341605e-15
     9   -7.745628191602e-04
    10   -1.903769315299e-04
    11    2.047874447641e-04
    12   -5.842150656561e-16
    13   -4.297126406935e-05
    14   -1.921354065240e-16
    15    2.294898019189e-04
    16   -7.854239214052e-05
    17    9.171756842053e-05
    18    2.954287506334e-16
    19   -3.949522407957e-04
    20    4.104459032253e-01
    21    7.428824402442e-03
    22   -4.945205551602e-03
    23   -2.156015882471e-04
    24    3.984883978024e-15
    25    3.155773153878e-04
    26    1.488990536909e-03
    27    1.254738326839e-15
    28    1.062864775638e-03
    29   -4.687702087200e-06
    30    1.338761591084e-04
    31   -5.799024896051e-16
    32    5.183961450518e-04
    33   -7.605441515045e-16
    34   -4.313382107905e-04
    35    8.754460885172e-06
    36    2.665974588376e-04
    37    7.926573614697e-16
    38    1.065813634512e-04
    39   -3.351916652418e-01
    40   -6.324799618260e-03
    41    3.291650373229e-03
    42   -2.328621798048e-04
    43    3.069949466076e-15
    44   -2.922438000061e-04
    45    2.545169264385e-04
    46    2.174010523970e-15
    47   -1.983105853334e-03
    48   -1.018566864473e-04
    49    5.165399513492e-04
    50   -4.998623859398e-16
    51   -4.034460720182e-04
    52    1.690472526796e-16
    53    5.363079376974e-04
    54   -2.605613393474e-05
    55    4.091571376554e-04
    56    1.988554512162e-16
    57    3.790408431725e-05
    58    6.145507161764e-01
    59    1.155191599970e-02
    60   -7.286669909953e-03
    61   -3.860664608790e-05
    62    2.901454595194e-15
    63    1.007974652852e-04
    64   -2.560428722808e-04
    65    7.577225389378e-16
    66   -1.752284853049e-03
    67    4.229890088500e-04
    68    6.213570622895e-04
    69   -1.237730720642e-16
    70    3.924924214240e-04
    71    1.014184783347e-15
    72   -6.262230327226e-04
    73    4.023172669547e-04
    74   -3.516758123358e-04
    75    4.139556236742e-16
    76   -4.291387919608e-04
    77   -1.918373169747e-01
    78   -3.820054922232e-03
    79    4.638711084197e-03
    80    4.821305569560e-05
    81    3.119630683197e-15
    82    1.615268415202e-05
    83   -7.945881915629e-04
    84    3.932369324185e-15
    85    1.728691962485e-03
    86   -2.803540896891e-04
    87    5.940992561239e-04
    88    2.679833187760e-17
    89   -4.711853984333e-04
    90   -4.431322055384e-16
    91    5.466613488817e-04
    92    2.938776104621e-04
    93   -2.202057300153e-04
    94    1.262714413910e-16
    95    3.244803918095e-04
Sym=X
Ene= 2.000000
Spin=Alpha
Occup=1
     1   -7.452352897114e-01
     2   -1.358026061503e-02
     3    9.137258888130e-03
     4   -7.481611323913e-05
     5   -2.406959314081e-14
     6    9.703607047583e-05
     7    4.751429578915e-04
     8   -1.624999248633e-14
     9   -3.601661729851e-03
    10   -1.019264390847e-04
    11   -1.205953921357e-04
    12   -2.797664091173e-16
    13    2.476391473951e-04
    14    3.625978237719e-16
    15    5.766605825843e-04
    16    3.018650064278e-04
    17   -6.688132907876e-05
    18    1.280278637821e-16
    19   -4.002762900125e-04
    20   -5.584162447842e-01
    21   -1.008411323768e-02
    22   -2.388580385117e-04
    23    4.615298856242e-04
    24   -1.447876975330e-14
    25   -6.349816903281e-04
    26    2.714626231431e-03
    27   -6.939526954710e-15
    28   -3.431936936915e-04
    29   -1.383132805667e-06
    30   -4.147701763626e-04
    31   -1.494535422880e-15
    32   -5.771082131708e-04
    33    2.391903754089e-15
    34    4.824180166058e-04
    35   -1.413084212872e-03
    36   -5.105924372952e-04
    37   -6.451515026102e-16
    38   -1.039406626081e-05
    39   -9.880066846741e-02
    40   -1.648437930716e-03
    41   -4.830562986476e-03
    42   -1.966917375297e-04
    43   -1.213783015684e-14
    44   -2.610988390051e-04
    45   -3.588533374617e-03
    46   -9.244852869278e-15
    47    1.415800671137e-03
    48    5.487121203835e-05
    49    7.970799960289e-05
    50   -1.610466454276e-15
    51   -7.485342160273e-05
    52   -1.939755844390e-15
    53   -6.632237658663e-05
    54   -1.336941471020e-03
    55    1.254599529022e-04
    56   -6.684409353723e-16
    57    2.103141206380e-05
    58   -3.431297354738e-01
    59   -6.342820601843e-03
    60    5.045328062700e-03
    61   -1.116779889707e-04
    62   -6.665602451721e-15
    63    1.056895836210e-04
    64    7.015455811360e-04
    65   -3.373725377465e-15
    66    2.049530017162e-03
    67   -1.335074004749e-04
    68   -3.153031909322e-04
    69   -2.027473392478e-15
    70   -2.316933814423e-04
    71    1.913357975887e-15
    72    4.368624606076e-04
    73    8.053607675430e-05
    74    1.634394077222e-04
    75    5.191054841617e-16
    76    1.707673726252e-04
    77    6.562705367306e-03
    78    3.742997973112e-04
    79   -4.918982679819e-04
    80    1.054196376750e-04
    81   -9.682114757452e-15
    82    1.505263935606e-04
    83   -5.017674472742e-04
    84   -5.007612739423e-15
    85    1.971474157818e-04
    86    2.120942803557e-04
    87   -2.843493401540e-04
    88   -1.143265376393e-15
    89    1.800467913744e-04
    90    2.708469851676e-15
    91   -1.168958720376e-04
    92    9.721321857376e-05
    93    1.181729572738e-04
    94    8.749815500502e-18
    95   -1.785811997015e-04
Sym=X
Ene= 2.000000
Spin=Alpha
Occup=1
     1    2.510974980569e-01
     2    3.862994146859e-03
     3    1.074291728324e-04
     4   -4.249638643977e-05
     5    3.445746042064e-15
     6    9.819190403798e-05
     7    4.045870585157e-04
     8    2.044538777243e-15
     9   -9.257946503076e-04
    10    5.020989136667e-04
    11   -5.067214957870e-05
    12    7.030366047083e-16
    13    3.082617309105e-04
    14   -1.207012601908e-15
    15   -1.716068346990e-04
    16    2.303999971937e-04
    17   -6.130376991732e-05
    18   -6.738598786235e-16
    19    4.447259030415e-04
    20   -6.041427145424e-01
    21   -1.096082596793e-02
    22    3.988806324787e-03
    23    3.326484362529e-04
    24    3.963183842616e-15
    25   -4.536950078741e-04
    26    3.311347740780e-04
    27    2.221912589403e-15
    28   -7.657534568465e-04
    29   -1.158938071179e-05
    30   -2.705571682091e-04
    31    1.392078340774e-15
    32   -7.709982897888e-04
    33   -1.781789718655e-15
    34    5.245016553918e-04
    35   -7.749444918369e-04
    36   -4.822006185978e-04
    37    8.325642551172e-16
    38   -1.469155042785e-04
    39   -3.580759373307e-01
    40   -6.548433301029e-03
    41    2.727111248764e-03
    42   -2.194423515551e-04
    43    3.495086153192e-15
    44   -2.554541403363e-04
    45   -3.041409352582e-04
    46    2.918360957757e-15
    47   -1.162162817712e-04
    48    9.554271593412e-06
    49    2.534765924245e-04
    50    1.483398481869e-16
    51   -6.646930668274e-04
    52   -4.812774138674e-16
    53    3.483289092857e-04
    54   -5.994113433539e-04
    55    3.534101989341e-04
    56    1.641122917698e-17
    57   -1.569721795411e-04
    58    5.480586855323e-01
    59    1.001211933461e-02
    60   -4.122158476233e-03
    61   -7.633628279782e-05
    62    5.422840702063e-15
    63   -2.519467435786e-05
    64   -1.794531342330e-04
    65    1.606754803596e-15
    66   -4.714882715571e-04
    67    4.280194528928e-04
    68    3.066125150781e-04
    69    1.367881508717e-16
    70    1.579923480897e-04
    71    1.056842432230e-15
    72   -4.753320108878e-04
    73    5.434777530751e-04
    74   -2.781977872161e-04
    75    1.250190495599e-15
    76   -3.103112513708e-04
    77    3.720915874296e-01
    78    6.810759111514e-03
    79   -2.617028487447e-03
    80    7.215544577565e-05
    81    4.988222914001e-15
    82   -1.927602520763e-05
    83   -8.172557365608e-04
    84    3.614428118018e-15
    85   -7.403579483853e-04
    86    3.963155698716e-04
    87   -2.590655322081e-04
    88    1.604047641598e-15
    89    8.112811430954e-05
    90   -1.048053656377e-16
    91   -3.547819045796e-04
    92    4.287761940990e-04
    93    2.542403843386e-04
    94    1.301083776223e-15
    95   -2.134733380117e-04
Sym=X
Ene= 2.000000
Spin=Alpha
Occup=1
     1   -2.756931057677e-01
     2   -4.125265355404e-03
     3   -1.184633346520e-03
     4   -5.946565197164e-05
     5    1.867243613513e-15
     6   -1.838781992191e-04
     7    2.709949373792e-04
     8    8.817095985501e-16
     9    1.813234393866e-03
    10   -2.498538556779e-04
    11   -1.099684068352e-04
    12   -6.788946239988e-16
    13   -2.936291325796e-04
    14    5.427555580107e-16
    15   -1.023373276717e-04
    16   -3.924474890292e-04
    17   -3.469779408843e-05
    18    1.066313179532e-15
    19   -3.280025381432e-04
    20    1.735248149478e-01
    21    2.777124640904e-03
    22    2.961992464167e-03
    23   -1.566223030876e-04
    24    6.891961989614e-16
    25    2.591520095755e-04
    26   -2.212626885584e-03
    27    2.591360236429e-16
    28   -2.007861445916e-03
    29   -1.352264735823e-04
    30   -2.902491145646e-04
    31   -4.121719068320e-16
    32    1.343390991382e-04
    33    1.634907066238e-16
    34    1.588958633308e-04
    35    1.197037674948e-03
    36   -1.513768287186e-05
    37   -6.578216853168e-16
    38    9.714317717611e-05
    39    5.507158327079e-01
    40    9.782237669841e-03
    41   -1.753762627507e-03
    42    3.965979307162e-04
    43    4.880289151112e-16
    44    5.675107185556e-04
    45    1.103593375321e-03
    46    7.399646215376e-16
    47   -3.329529264355e-04
    48   -8.195490559802e-05
    49   -1.132420730968e-04
    50    1.964051594429e-16
    51    6.752662001348e-04
    52    1.276543414538e-16
    53   -3.845635972081e-04
    54    1.152811738797e-03
    55   -3.622152969576e-04
    56    8.501536547396e-17
    57    1.442183080160e-04
    58    1.710743278098e-01
    59    2.857880080220e-03
    60    1.725523496828e-04
    61    2.242166597890e-05
    62    2.867890287749e-16
    63   -3.701925021946e-05
    64    4.336372027690e-04
    65   -4.814994933231e-16
    66    1.187509597576e-04
    67   -1.672855481705e-04
    68   -3.721930380265e-04
    69    1.807218983191e-16
    70   -3.351601801067e-04
    71    2.174784830282e-16
    72    2.162622349487e-04
    73    4.070933390021e-04
    74    7.369471013469e-05
    75    5.233750947314e-16
    76    1.884044263601e-04
    77    7.456354758832e-01
    78    1.375290075657e-02
    79   -7.910851566718e-03
    80   -2.690024922925e-05
    81    1.514917575595e-16
    82    1.409776814135e-05
    83    6.042308125565e-04
    84   -1.731536129989e-16
    85   -1.973812451843e-03
    86    2.879521071762e-04
    87   -4.117796583019e-04
    88   -9.466171740889e-16
    89    2.381523854195e-04
    90    4.366571676530e-16
    91   -5.683970253258e-04
    92    5.186739065576e-04
    93    2.957683670839e-04
    94   -1.628503293558e-15
    95   -3.230717629021e-04
Sym=X
Ene= 2.000000
Spin=Alpha
Occup=1
     1    2.335399353874e-02
     2    1.952045059362e-04
     3    7.887466938043e-04
     4    1.757684599142e-04
     5   -4.249295789765e-15
     6    4.378755996692e-05
     7   -1.744524560558e-03
     8   -2.804603362765e-15
     9   -6.156550813634e-04
    10    1.232011169099e-04
    11    2.001714585176e-04
    12    4.487814721447e-16
    13    1.098781626660e-04
    14   -6.292909353537e-16
    15    1.297097443966e-05
    16    1.049403484044e-04
    17    2.658670066667e-04
    18   -8.872910909335e-16
    19    9.529373018926e-05
    20    3.455962627500e-01
    21    6.159662309665e-03
    22   -1.753073996000e-03
    23   -1.169230781370e-04
    24    1.494503078246e-15
    25    2.616917751543e-04
    26    2.427283387652e-04
    27    3.219113525574e-16
    28    1.290191449997e-03
    29    5.157101727907e-05
    30   -7.856740572827e-05
    31    5.162076282642e-16
    32   -4.192858101719e-05
    33    4.345248203231e-16
    34   -2.084229435043e-04
    35    4.990574424135e-05
    36    1.134902418360e-04
    37   -3.053408275355e-16
    38   -7.103427132022e-05
    39   -6.642358540832e-01
    40   -1.189015342148e-02
    41    2.754493553556e-03
    42   -3.316521003118e-04
    43    1.437466274267e-15
    44   -5.507885462045e-04
    45   -6.307160388490e-04
    46   -1.512568983585e-15
    47   -1.211766941897e-03
    48   -3.017358437401e-05
    49    5.774647723581e-05
    50   -3.042869509448e-16
    51   -3.871159171783e-04
    52   -1.599159170155e-16
    53    4.486900366495e-04
    54   -7.459571666737e-04
    55    3.716947806194e-04
    56    1.884571880772e-16
    57   -1.470469996858e-05
    58   -4.121406162790e-01
    59   -7.533852207303e-03
    60    4.087877313108e-03
    61   -1.742093459702e-05
    62    6.193385382482e-15
    63    1.251070013807e-05
    64    2.475175598789e-03
    65    5.405696881786e-15
    66   -3.233547959398e-04
    67   -3.756418340634e-05
    68   -1.415943168114e-04
    69    3.930702431190e-16
    70   -2.126752382130e-04
    71    7.512628975478e-17
    72    2.994499259792e-04
    73   -1.952149034098e-04
    74    5.059195148606e-05
    75   -1.766394805280e-17
    76    2.261090288905e-04
    77    5.134551553074e-01
    78    9.411983787494e-03
    79   -4.592775232840e-03
    80    3.504374370712e-05
    81    7.252441211286e-15
    82   -1.647617174953e-06
    83    2.233454783894e-03
    84    4.550901559138e-15
    85    3.751377227959e-04
    86    2.139515268181e-04
    87   -2.600050638654e-04
    88    1.008599340495e-15
    89    2.693064292322e-04
    90   -1.511532536064e-16
    91   -4.288771102156e-04
    92    3.447623100095e-04
    93    1.456031259284e-04
    94    2.026778910955e-16
    95   -3.303198333105e-04
Sym=X
Ene= 1.985664
Spin=Alpha
Occup=1
     1    1.359723092672e-01
     2   -2.805742977029e-01
     3   -2.395411931515e-01
     4    2.098934191526e-13
     5    2.275059511419e-15
     6    2.118915497241e-03
     7    7.146175779360e-14
     8    2.398594326741e-15
     9    3.719083691625e-02
    10   -3.701753281199e-03
    11   -2.169110348970e-14
    12    9.346259535304e-16
    13   -9.838475510779e-03
    14   -1.873338908180e-16
    15   -1.275007657930e-01
    16   -2.598193487678e-02
    17    5.530942581453e-15
    18   -4.193146222220e-16
    19    2.039952979405e-02
    20    9.110924604595e-02
    21   -1.864372048790e-01
    22   -5.980975735349e-02
    23    4.060320185722e-02
    24   -1.273656620089e-16
    25   -6.661485794313e-03
    26   -2.388055972197e-02
    27   -7.071359005117e-16
    28   -1.130505614434e-02
    29   -7.041104628732e-03
    30    8.611179552088e-03
    31    1.274726839617e-15
    32   -9.085993473954e-03
    33   -7.603645100884e-16
    34   -7.422040024755e-02
    35   -3.307704648506e-03
    36    1.049880049881e-02
    37    8.542434546833e-16
    38    4.165274154817e-03
    39    9.110924604666e-02
    40   -1.864372048800e-01
    41   -5.980975735419e-02
    42   -4.060320185704e-02
    43   -5.469190708159e-16
    44   -6.661485794205e-03
    45    2.388055972186e-02
    46   -1.683669859037e-15
    47   -1.130505614419e-02
    48   -7.041104628778e-03
    49   -8.611179552076e-03
    50    4.622239557970e-16
    51   -9.085993473978e-03
    52   -2.771830417731e-16
    53   -7.422040024812e-02
    54   -3.307704648733e-03
    55   -1.049880049887e-02
    56   -2.442940645738e-16
    57    4.165274154854e-03
    58    7.282526634149e-02
    59   -1.474767208667e-01
    60   -9.946766172070e-02
    61   -1.689281409109e-02
    62   -4.978784919014e-15
    63   -3.460617609995e-02
    64   -2.956131915759e-03
    65   -1.997001919035e-15
    66   -1.298869307628e-02
    67   -4.620638529622e-03
    68    2.062273969818e-03
    69    1.486516279005e-16
    70   -6.163720772172e-03
    71   -5.650538739158e-16
    72   -5.390710171536e-02
    73   -9.069585776947e-03
    74   -4.393688178144e-03
    75    5.589958339730e-16
    76   -5.901349122869e-03
    77    7.282526634116e-02
    78   -1.474767208662e-01
    79   -9.946766172042e-02
    80    1.689281409138e-02
    81   -3.715359570055e-15
    82   -3.460617609971e-02
    83    2.956131915785e-03
    84   -1.961755544039e-15
    85   -1.298869307629e-02
    86   -4.620638529576e-03
    87   -2.062273969776e-03
    88    4.900342853943e-17
    89   -6.163720772173e-03
    90   -7.375328122593e-17
    91   -5.390710171509e-02
    92   -9.069585776925e-03
    93    4.393688178135e-03
    94   -1.037990299564e-15
    95   -5.901349122833e-03
Sym=X
Ene= 1.981258
Spin=Alpha
Occup=1
     1   -1.131136067911e-01
     2    2.431947155057e-01
     3    1.893948808093e-01
     4   -2.084248914880e-13
     5    5.843230265623e-15
     6    9.721884532169e-02
     7   -1.456262488309e-13
     8    3.123216609724e-15
     9    4.969182119992e-03
    10   -8.664067275045e-04
    11    2.158589091153e-14
    12   -6.054954726984e-16
    13    4.027289746531e-03
    14    1.245054040860e-16
    15    1.728685550983e-01
    16    2.543515796039e-02
    17    1.546263926404e-15
    18    2.400872949145e-16
    19   -2.607920403101e-02
    20    3.133514059973e-03
    21   -1.226848562509e-02
    22   -1.388621363895e-02
    23   -1.393973661579e-02
    24    6.127831531048e-15
    25    1.093144011111e-01
    26   -5.731663956019e-03
    27    1.815480343193e-15
    28    3.475692800794e-02
    29   -5.160846649289e-03
    30   -1.897175990320e-02
    31    4.091674855163e-16
    32    2.806118704023e-03
    33    1.537870633785e-16
    34    1.483007217732e-02
    35    4.175711229803e-03
    36   -3.153876500992e-03
    37   -7.970796870643e-17
    38    1.618774035275e-04
    39    3.133514059687e-03
    40   -1.226848562430e-02
    41   -1.388621363851e-02
    42    1.393973661554e-02
    43    5.827469811834e-15
    44    1.093144011112e-01
    45    5.731663955833e-03
    46    3.674788041423e-15
    47    3.475692800791e-02
    48   -5.160846649275e-03
    49    1.897175990319e-02
    50   -6.907692011468e-16
    51    2.806118704040e-03
    52    1.651479434922e-15
    53    1.483007217794e-02
    54    4.175711229845e-03
    55    3.153876501046e-03
    56    3.961575090917e-16
    57    1.618774035019e-04
    58    1.132683897244e-01
    59   -2.269384522227e-01
    60   -1.326206221309e-01
    61   -1.329481919210e-02
    62    7.773640247178e-15
    63    4.325902229040e-02
    64   -1.310297892100e-02
    65    2.140633930003e-15
    66    9.879089177739e-03
    67    2.755890577992e-03
    68    9.325060886729e-04
    69   -1.232429729042e-16
    70   -1.262979480634e-02
    71   -6.291914570871e-16
    72   -1.466779893167e-01
    73   -3.452466269717e-02
    74   -1.052333339472e-02
    75   -5.798114765429e-16
    76   -1.248098804302e-02
    77    1.132683897245e-01
    78   -2.269384522229e-01
    79   -1.326206221310e-01
    80    1.329481919198e-02
    81    7.609181215845e-15
    82    4.325902229022e-02
    83    1.310297892101e-02
    84    7.941503950767e-15
    85    9.879089177624e-03
    86    2.755890577956e-03
    87   -9.325060887012e-04
    88    2.295398512014e-15
    89   -1.262979480633e-02
    90   -1.750051660461e-15
    91   -1.466779893167e-01
    92   -3.452466269720e-02
    93    1.052333339473e-02
    94    6.443318447354e-16
    95   -1.248098804303e-02
Sym=X
Ene= 1.978706
Spin=Alpha
Occup=1
     1   -4.632051117094e-13
     2    1.015186066815e-12
     3    9.627692620898e-13
     4    9.260498360676e-02
     5    3.282109371669e-15
     6    3.588494863236e-13
     7    4.820543891281e-02
     8    2.357035289439e-15
     9    1.661818112493e-14
    10    1.680601366815e-14
    11   -1.045073453361e-02
    12    7.574938319372e-17
    13    1.431307731241e-14
    14    7.625030158705e-16
    15    6.999067173999e-13
    16    5.962418747425e-14
    17    4.254806436084e-04
    18   -2.301254473390e-16
    19   -9.792828861362e-14
    20   -1.127247512689e-01
    21    2.374033502172e-01
    22    1.396921459014e-01
    23    8.509558254635e-02
    24    1.390172651926e-15
    25   -5.719746264763e-03
    26    1.417467664235e-02
    27   -3.531743045815e-15
    28   -2.109148562127e-02
    29    9.098217936550e-03
    30    2.055227379371e-03
    31    2.644617171286e-15
    32    4.966362617749e-03
    33    5.405998202716e-16
    34    1.823900852974e-01
    35    4.793371816692e-02
    36   -1.713000679898e-02
    37    1.387879716932e-15
    38   -8.419233604442e-03
    39    1.127247512689e-01
    40   -2.374033502171e-01
    41   -1.396921459016e-01
    42    8.509558254679e-02
    43    1.185967581331e-15
    44    5.719746265072e-03
    45    1.417467664232e-02
    46    5.738030603799e-15
    47    2.109148562139e-02
    48   -9.098217936517e-03
    49    2.055227379485e-03
    50   -1.727960950768e-15
    51   -4.966362617728e-03
    52    1.110013472869e-15
    53   -1.823900852975e-01
    54   -4.793371816694e-02
    55   -1.713000679897e-02
    56   -1.646211778235e-15
    57    8.419233604441e-03
    58    7.073288749811e-02
    59   -1.438918543658e-01
    60   -7.995344248322e-02
    61    9.373709643964e-02
    62   -1.148325436427e-15
    63   -1.190989872564e-02
    64    2.165408198329e-02
    65   -7.727680613657e-15
    66   -7.651532157416e-03
    67   -1.194683487874e-02
    68    6.288288588383e-03
    69   -1.368390223463e-15
    70    1.336582728013e-03
    71   -2.771834956894e-15
    72   -1.150099062617e-01
    73   -2.936952009352e-02
    74   -6.012820982211e-03
    75    1.952053483063e-15
    76   -1.073140046865e-02
    77   -7.073288749829e-02
    78    1.438918543659e-01
    79    7.995344248325e-02
    80    9.373709643953e-02
    81    1.326985647808e-15
    82    1.190989872555e-02
    83    2.165408198321e-02
    84    7.116852474294e-15
    85    7.651532157479e-03
    86    1.194683487875e-02
    87    6.288288588376e-03
    88    9.429394755430e-16
    89   -1.336582728021e-03
    90   -2.477675648940e-15
    91    1.150099062618e-01
    92    2.936952009375e-02
    93   -6.012820982217e-03
    94   -3.911775766232e-15
    95    1.073140046867e-02
Sym=X
Ene= 1.971731
Spin=Alpha
Occup=1
     1   -7.486439248882e-02
     2    1.685887449906e-01
     3    1.791594825556e-01
     4   -3.822039458241e-13
     5   -7.569807469248e-15
     6    1.293543609552e-01
     7   -1.609140515660e-13
     8   -6.489782407955e-15
     9    2.235253030299e-02
    10    8.998741808612e-03
    11    2.934943661123e-14
    12   -2.894466177407e-16
    13   -8.301057871503e-03
    14    7.553642844374e-16
    15    1.766689404386e-01
    16    3.616435781159e-02
    17    4.888233811233e-16
    18    1.851985743549e-16
    19   -2.213117526512e-02
    20    8.558495794642e-02
    21   -1.958567228381e-01
    22   -1.727978996208e-01
    23   -1.619357160577e-01
    24    7.379804310947e-16
    25   -2.867328325183e-02
    26   -2.729460817014e-02
    27   -4.291325038367e-15
    28    4.812273370855e-03
    29    7.174815018419e-03
    30   -1.495972426238e-02
    31    2.557403367184e-16
    32   -4.538689890621e-03
    33    8.759953766337e-16
    34   -2.287272292294e-01
    35   -6.569603250105e-02
    36    1.746466830061e-02
    37    9.044089735238e-16
    38    8.110930537874e-03
    39    8.558495794587e-02
    40   -1.958567228368e-01
    41   -1.727978996196e-01
    42    1.619357160570e-01
    43    4.790376318303e-16
    44   -2.867328325116e-02
    45    2.729460817007e-02
    46   -2.089210528317e-15
    47    4.812273370794e-03