[Molden Format]
[Atoms] (Angs)
  C      1    6     -0.00000000     -0.71785100     -0.00000000
  C      2    6     -1.24488000     -1.40709000     -0.00000000
  C      3    6     -2.44023000     -0.70932100     -0.00000000
  C      4    6     -2.44023000      0.70932100     -0.00000000
  C      5    6     -1.24488000      1.40709000     -0.00000000
  C      6    6      0.00000000      0.71785100      0.00000000
  C      7    6      1.24488000      1.40709000      0.00000000
  C      8    6      2.44023000      0.70932100      0.00000000
  H      9    1     -1.24380000     -2.50473000     -0.00000000
  H     10    1     -3.39264000     -1.25301000     -0.00000000
  H     11    1     -3.39264000      1.25301000     -0.00000000
  H     12    1     -1.24380000      2.50473000     -0.00000000
  H     13    1      1.24380000      2.50473000      0.00000000
  C     14    6      2.44023000     -0.70932100      0.00000000
  C     15    6      1.24488000     -1.40709000      0.00000000
  H     16    1      3.39264000      1.25301000      0.00000000
  H     17    1      3.39264000     -1.25301000      0.00000000
  H     18    1      1.24380000     -2.50473000      0.00000000
[GTO]
1    0
S    5    1.000000
   1.23840169E+03    5.45688000E-03 
   1.86290050E+02    4.06384100E-02 
   4.22511764E+01    1.80255940E-01 
   1.16765579E+01    4.63151220E-01 
   3.59305065E+00    4.40871730E-01 
S    1    1.000000
   4.02451470E-01    1.00000000E+00 
S    1    1.000000
   1.30901830E-01    1.00000000E+00 
P    3    1.000000
   9.46809706E+00    3.83878700E-02 
   2.01035451E+00    2.11170250E-01 
   5.47710050E-01    5.13281720E-01 
P    1    1.000000
   1.52686140E-01    1.00000000E+00 

2    0
S    5    1.000000
   1.23840169E+03    5.45688000E-03 
   1.86290050E+02    4.06384100E-02 
   4.22511764E+01    1.80255940E-01 
   1.16765579E+01    4.63151220E-01 
   3.59305065E+00    4.40871730E-01 
S    1    1.000000
   4.02451470E-01    1.00000000E+00 
S    1    1.000000
   1.30901830E-01    1.00000000E+00 
P    3    1.000000
   9.46809706E+00    3.83878700E-02 
   2.01035451E+00    2.11170250E-01 
   5.47710050E-01    5.13281720E-01 
P    1    1.000000
   1.52686140E-01    1.00000000E+00 

3    0
S    5    1.000000
   1.23840169E+03    5.45688000E-03 
   1.86290050E+02    4.06384100E-02 
   4.22511764E+01    1.80255940E-01 
   1.16765579E+01    4.63151220E-01 
   3.59305065E+00    4.40871730E-01 
S    1    1.000000
   4.02451470E-01    1.00000000E+00 
S    1    1.000000
   1.30901830E-01    1.00000000E+00 
P    3    1.000000
   9.46809706E+00    3.83878700E-02 
   2.01035451E+00    2.11170250E-01 
   5.47710050E-01    5.13281720E-01 
P    1    1.000000
   1.52686140E-01    1.00000000E+00 

4    0
S    5    1.000000
   1.23840169E+03    5.45688000E-03 
   1.86290050E+02    4.06384100E-02 
   4.22511764E+01    1.80255940E-01 
   1.16765579E+01    4.63151220E-01 
   3.59305065E+00    4.40871730E-01 
S    1    1.000000
   4.02451470E-01    1.00000000E+00 
S    1    1.000000
   1.30901830E-01    1.00000000E+00 
P    3    1.000000
   9.46809706E+00    3.83878700E-02 
   2.01035451E+00    2.11170250E-01 
   5.47710050E-01    5.13281720E-01 
P    1    1.000000
   1.52686140E-01    1.00000000E+00 

5    0
S    5    1.000000
   1.23840169E+03    5.45688000E-03 
   1.86290050E+02    4.06384100E-02 
   4.22511764E+01    1.80255940E-01 
   1.16765579E+01    4.63151220E-01 
   3.59305065E+00    4.40871730E-01 
S    1    1.000000
   4.02451470E-01    1.00000000E+00 
S    1    1.000000
   1.30901830E-01    1.00000000E+00 
P    3    1.000000
   9.46809706E+00    3.83878700E-02 
   2.01035451E+00    2.11170250E-01 
   5.47710050E-01    5.13281720E-01 
P    1    1.000000
   1.52686140E-01    1.00000000E+00 

6    0
S    5    1.000000
   1.23840169E+03    5.45688000E-03 
   1.86290050E+02    4.06384100E-02 
   4.22511764E+01    1.80255940E-01 
   1.16765579E+01    4.63151220E-01 
   3.59305065E+00    4.40871730E-01 
S    1    1.000000
   4.02451470E-01    1.00000000E+00 
S    1    1.000000
   1.30901830E-01    1.00000000E+00 
P    3    1.000000
   9.46809706E+00    3.83878700E-02 
   2.01035451E+00    2.11170250E-01 
   5.47710050E-01    5.13281720E-01 
P    1    1.000000
   1.52686140E-01    1.00000000E+00 

7    0
S    5    1.000000
   1.23840169E+03    5.45688000E-03 
   1.86290050E+02    4.06384100E-02 
   4.22511764E+01    1.80255940E-01 
   1.16765579E+01    4.63151220E-01 
   3.59305065E+00    4.40871730E-01 
S    1    1.000000
   4.02451470E-01    1.00000000E+00 
S    1    1.000000
   1.30901830E-01    1.00000000E+00 
P    3    1.000000
   9.46809706E+00    3.83878700E-02 
   2.01035451E+00    2.11170250E-01 
   5.47710050E-01    5.13281720E-01 
P    1    1.000000
   1.52686140E-01    1.00000000E+00 

8    0
S    5    1.000000
   1.23840169E+03    5.45688000E-03 
   1.86290050E+02    4.06384100E-02 
   4.22511764E+01    1.80255940E-01 
   1.16765579E+01    4.63151220E-01 
   3.59305065E+00    4.40871730E-01 
S    1    1.000000
   4.02451470E-01    1.00000000E+00 
S    1    1.000000
   1.30901830E-01    1.00000000E+00 
P    3    1.000000
   9.46809706E+00    3.83878700E-02 
   2.01035451E+00    2.11170250E-01 
   5.47710050E-01    5.13281720E-01 
P    1    1.000000
   1.52686140E-01    1.00000000E+00 

9    0
S    3    1.000000
   1.30107010E+01    1.96821600E-02 
   1.96225720E+00    1.37965240E-01 
   4.44537960E-01    4.78319350E-01 
S    1    1.000000
   1.21949620E-01    1.00000000E+00 

10    0
S    3    1.000000
   1.30107010E+01    1.96821600E-02 
   1.96225720E+00    1.37965240E-01 
   4.44537960E-01    4.78319350E-01 
S    1    1.000000
   1.21949620E-01    1.00000000E+00 

11    0
S    3    1.000000
   1.30107010E+01    1.96821600E-02 
   1.96225720E+00    1.37965240E-01 
   4.44537960E-01    4.78319350E-01 
S    1    1.000000
   1.21949620E-01    1.00000000E+00 

12    0
S    3    1.000000
   1.30107010E+01    1.96821600E-02 
   1.96225720E+00    1.37965240E-01 
   4.44537960E-01    4.78319350E-01 
S    1    1.000000
   1.21949620E-01    1.00000000E+00 

13    0
S    3    1.000000
   1.30107010E+01    1.96821600E-02 
   1.96225720E+00    1.37965240E-01 
   4.44537960E-01    4.78319350E-01 
S    1    1.000000
   1.21949620E-01    1.00000000E+00 

14    0
S    5    1.000000
   1.23840169E+03    5.45688000E-03 
   1.86290050E+02    4.06384100E-02 
   4.22511764E+01    1.80255940E-01 
   1.16765579E+01    4.63151220E-01 
   3.59305065E+00    4.40871730E-01 
S    1    1.000000
   4.02451470E-01    1.00000000E+00 
S    1    1.000000
   1.30901830E-01    1.00000000E+00 
P    3    1.000000
   9.46809706E+00    3.83878700E-02 
   2.01035451E+00    2.11170250E-01 
   5.47710050E-01    5.13281720E-01 
P    1    1.000000
   1.52686140E-01    1.00000000E+00 

15    0
S    5    1.000000
   1.23840169E+03    5.45688000E-03 
   1.86290050E+02    4.06384100E-02 
   4.22511764E+01    1.80255940E-01 
   1.16765579E+01    4.63151220E-01 
   3.59305065E+00    4.40871730E-01 
S    1    1.000000
   4.02451470E-01    1.00000000E+00 
S    1    1.000000
   1.30901830E-01    1.00000000E+00 
P    3    1.000000
   9.46809706E+00    3.83878700E-02 
   2.01035451E+00    2.11170250E-01 
   5.47710050E-01    5.13281720E-01 
P    1    1.000000
   1.52686140E-01    1.00000000E+00 

16    0
S    3    1.000000
   1.30107010E+01    1.96821600E-02 
   1.96225720E+00    1.37965240E-01 
   4.44537960E-01    4.78319350E-01 
S    1    1.000000
   1.21949620E-01    1.00000000E+00 

17    0
S    3    1.000000
   1.30107010E+01    1.96821600E-02 
   1.96225720E+00    1.37965240E-01 
   4.44537960E-01    4.78319350E-01 
S    1    1.000000
   1.21949620E-01    1.00000000E+00 

18    0
S    3    1.000000
   1.30107010E+01    1.96821600E-02 
   1.96225720E+00    1.37965240E-01 
   4.44537960E-01    4.78319350E-01 
S    1    1.000000
   1.21949620E-01    1.00000000E+00 

[MO]
Sym=X
Ene= -11.257174
Spin=Alpha
Occup=1
     1    6.979325062885e-01
     2    2.328859268281e-02
     3   -6.578305166636e-03
     4   -1.442097309623e-15
     5   -1.332612798259e-04
     6    3.081312824434e-16
     7    9.293564182111e-14
     8   -3.093656111903e-03
     9   -1.507294506476e-15
    10    4.454403238416e-02
    11    8.327970089609e-05
    12    2.477009614415e-03
    13   -5.646137433602e-04
    14   -2.537866609513e-04
    15   -7.357355369444e-16
    16   -2.526884951610e-03
    17    8.199165694291e-04
    18    1.587132771035e-15
    19    1.639355786263e-03
    20   -6.076090819843e-04
    21   -2.819961687494e-03
    22   -7.699892151479e-05
    23   -1.361370943703e-04
    24    5.759774393868e-19
    25    1.513817869508e-04
    26    1.987039043146e-03
    27   -7.071059718090e-16
    28    1.639355787301e-03
    29   -6.076090819531e-04
    30   -2.819961687504e-03
    31   -7.699892151486e-05
    32    1.361370943714e-04
    33    6.497528422292e-17
    34    1.513817869388e-04
    35   -1.987039043217e-03
    36   -5.503671999950e-16
    37    4.454403238290e-02
    38    8.327970083559e-05
    39    2.477009614340e-03
    40   -5.646137433609e-04
    41    2.537866609539e-04
    42   -3.060811740332e-16
    43   -2.526884951722e-03
    44   -8.199165694325e-04
    45    2.415605097389e-16
    46    6.979325062876e-01
    47    2.328859268278e-02
    48   -6.578305166945e-03
    49    1.618185294962e-15
    50    1.332612798196e-04
    51   -1.216740466888e-16
    52   -9.759659985557e-14
    53    3.093656112186e-03
    54    8.722661192068e-16
    55    4.454403238316e-02
    56    8.327970084947e-05
    57    2.477009614528e-03
    58    5.646137433590e-04
    59    2.537866609527e-04
    60    7.677855120416e-17
    61    2.526884951702e-03
    62   -8.199165695238e-04
    63    1.004654599746e-16
    64    1.639355786051e-03
    65   -6.076090819940e-04
    66   -2.819961687645e-03
    67    7.699892151535e-05
    68    1.361370943722e-04
    69    4.797624199074e-16
    70   -1.513817868811e-04
    71   -1.987039043166e-03
    72   -2.002453769956e-15
    73    1.333287584109e-05
    74    2.327897991473e-04
    75    4.524228381055e-04
    76    6.867891835802e-04
    77    4.524228381066e-04
    78    6.867891835929e-04
    79    1.333287584527e-05
    80    2.327897991573e-04
    81    1.333287585192e-05
    82    2.327897991672e-04
    83    1.639355787569e-03
    84   -6.076090819405e-04
    85   -2.819961687388e-03
    86    7.699892151344e-05
    87   -1.361370943712e-04
    88   -9.720283654450e-16
    89   -1.513817869976e-04
    90    1.987039043210e-03
    91    2.676988455515e-15
    92    4.454403238314e-02
    93    8.327970085476e-05
    94    2.477009614280e-03
    95    5.646137433586e-04
    96   -2.537866609529e-04
    97    3.634028886167e-16
    98    2.526884951649e-03
    99    8.199165693448e-04
   100   -2.826288496542e-16
   101    4.524228381048e-04
   102    6.867891835787e-04
   103    4.524228381090e-04
   104    6.867891835966e-04
   105    1.333287583402e-05
   106    2.327897991311e-04
Sym=X
Ene= -11.256248
Spin=Alpha
Occup=1
     1   -6.966563252253e-01
     2   -2.638126972238e-02
     3    3.123833937669e-02
     4    1.213018943104e-15
     5   -4.213969525147e-04
     6   -7.506291296880e-18
     7   -4.727511784819e-14
     8   -8.627773208150e-03
     9   -5.021432722467e-16
    10   -5.215958762166e-02
    11   -4.977479193949e-04
    12   -1.312959338124e-02
    13    6.133263009126e-04
    14    3.722807358535e-04
    15    1.343758677290e-16
    16   -5.541566347917e-03
    17    1.824150439417e-04
    18   -2.927014154265e-16
    19   -5.358329602780e-03
    20   -6.670353876936e-04
    21    8.719277821705e-04
    22   -1.676186763688e-04
    23    2.162028684459e-05
    24   -2.737435886829e-16
    25    9.291553348360e-04
    26    3.178786768029e-04
    27    4.939985133194e-16
    28    5.358329603759e-03
    29    6.670353877251e-04
    30   -8.719277822047e-04
    31    1.676186763701e-04
    32    2.162028684819e-05
    33   -2.121276320192e-17
    34   -9.291553348266e-04
    35    3.178786767817e-04
    36    2.600691561430e-16
    37    5.215958762066e-02
    38    4.977479193634e-04
    39    1.312959338120e-02
    40   -6.133263009114e-04
    41    3.722807358535e-04
    42    3.039761732402e-16
    43    5.541566347876e-03
    44    1.824150439719e-04
    45   -5.837451968890e-16
    46    6.966563252263e-01
    47    2.638126972242e-02
    48   -3.123833937663e-02
    49    4.862172405147e-16
    50   -4.213969525164e-04
    51   -1.187986179307e-16
    52    7.858419318919e-15
    53   -8.627773208120e-03
    54    2.811008733595e-16
    55    5.215958762116e-02
    56    4.977479193816e-04
    57    1.312959338115e-02
    58    6.133263009130e-04
    59    3.722807358539e-04
    60   -2.657024420959e-16
    61   -5.541566347872e-03
    62    1.824150439749e-04
    63    5.595672314131e-16
    64    5.358329601992e-03
    65    6.670353876536e-04
    66   -8.719277820692e-04
    67   -1.676186763678e-04
    68    2.162028684855e-05
    69    1.892237900562e-16
    70    9.291553348113e-04
    71    3.178786767413e-04
    72   -3.771054285582e-16
    73    7.250338504137e-04
    74    1.625711371845e-03
    75    7.292776355220e-05
    76    1.545539797225e-04
    77   -7.292776355033e-05
    78   -1.545539797062e-04
    79   -7.250338504148e-04
    80   -1.625711371854e-03
    81   -7.250338504142e-04
    82   -1.625711371846e-03
    83   -5.358329602780e-03
    84   -6.670353876857e-04
    85    8.719277820702e-04
    86    1.676186763708e-04
    87    2.162028684865e-05
    88   -2.076582911714e-16
    89   -9.291553348184e-04
    90    3.178786767508e-04
    91    5.001433921761e-16
    92   -5.215958762050e-02
    93   -4.977479193620e-04
    94   -1.312959338116e-02
    95   -6.133263009109e-04
    96    3.722807358545e-04
    97   -1.748396740689e-16
    98    5.541566347884e-03
    99    1.824150439878e-04
   100    6.210252012789e-17
   101   -7.292776354680e-05
   102   -1.545539797162e-04
   103    7.292776354967e-05
   104    1.545539797213e-04
   105    7.250338504159e-04
   106    1.625711371854e-03
Sym=X
Ene= -11.249948
Spin=Alpha
Occup=1
     1   -2.229331737930e-11
     2   -1.711297986998e-12
     3    2.831491551641e-12
     4   -5.259176359453e-04
     5    5.585508726542e-14
     6   -4.781028218028e-17
     7   -8.235683442902e-04
     8    7.838799054305e-13
     9    1.122964820467e-15
    10   -4.097243268771e-01
    11   -1.342875986745e-02
    12    7.753060247732e-03
    13   -8.066316589662e-05
    14    9.392526495421e-05
    15   -8.596703468808e-18
    16   -1.255531374704e-03
    17   -2.004773181771e-03
    18   -5.258933737952e-16
    19   -2.787352403315e-01
    20   -8.286115359108e-03
    21    1.095827982175e-03
    22    3.064018766491e-04
    23   -1.144252288049e-04
    24    5.848671103782e-17
    25   -3.142677667417e-04
    26    1.118656318918e-03
    27    1.271101333825e-16
    28   -2.787352403278e-01
    29   -8.286115359006e-03
    30    1.095827981278e-03
    31    3.064018766250e-04
    32    1.144252287837e-04
    33    7.056842063199e-17
    34   -3.142677671511e-04
    35   -1.118656318672e-03
    36   -9.484465905269e-17
    37   -4.097243268505e-01
    38   -1.342875986644e-02
    39    7.753060248689e-03
    40   -8.066316586766e-05
    41   -9.392526498097e-05
    42    2.121272916525e-16
    43   -1.255531374522e-03
    44    2.004773181111e-03
    45    1.462076497389e-16
    46   -2.255683711512e-11
    47   -1.726148087314e-12
    48    2.940893188697e-12
    49   -5.259176359613e-04
    50   -5.444302235598e-14
    51    5.998504601751e-17
    52   -8.235683424991e-04
    53   -8.304307762275e-13
    54   -5.966230541575e-16
    55    4.097243271974e-01
    56    1.342875987841e-02
    57   -7.753060258075e-03
    58   -8.066316621462e-05
    59    9.392526481753e-05
    60   -1.069576774218e-16
    61   -1.255531375474e-03
    62   -2.004773179004e-03
    63    3.825447736828e-16
    64    2.787352405737e-01
    65    8.286115366579e-03
    66   -1.095827980906e-03
    67    3.064018767212e-04
    68   -1.144252287985e-04
    69   -1.903345309822e-16
    70   -3.142677683218e-04
    71    1.118656319263e-03
    72   -2.087699573045e-16
    73    2.483058551067e-04
    74   -3.314873772604e-03
    75    5.491699417397e-04
    76   -7.924605687388e-04
    77    5.491699416925e-04
    78   -7.924605687872e-04
    79    2.483058551117e-04
    80   -3.314873772379e-03
    81   -2.483058558195e-04
    82    3.314873773590e-03
    83    2.787352405767e-01
    84    8.286115366650e-03
    85   -1.095827981789e-03
    86    3.064018767458e-04
    87    1.144252288195e-04
    88    2.981837562177e-16
    89   -3.142677679144e-04
    90   -1.118656319523e-03
    91    7.244333494404e-16
    92    4.097243272242e-01
    93    1.342875987942e-02
    94   -7.753060257112e-03
    95   -8.066316624263e-05
    96   -9.392526479330e-05
    97    6.848076322531e-16
    98   -1.255531375664e-03
    99    2.004773179704e-03
   100   -1.478994681453e-15
   101   -5.491699420797e-04
   102    7.924605696750e-04
   103   -5.491699421243e-04
   104    7.924605696171e-04
   105   -2.483058558108e-04
   106    3.314873773833e-03
Sym=X
Ene= -11.249928
Spin=Alpha
Occup=1
     1   -5.243201244708e-02
     2   -4.002587436035e-03
     3    6.629848364724e-03
     4    2.296429376953e-13
     5    1.267171915213e-04
     6   -1.737226526713e-16
     7   -2.852848166035e-13
     8    1.900033820498e-03
     9    5.318016025080e-16
    10    4.018427985054e-01
    11    1.385206329830e-02
    12   -1.081356391566e-02
    13    4.044605972262e-04
    14    1.864659959421e-04
    15    4.946200481874e-16
    16    1.124518117512e-03
    17   -2.406660010879e-03
    18   -7.723107154303e-16
    19    2.874814793333e-01
    20    8.859234557368e-03
    21    3.827373268575e-04
    22   -1.098473874287e-04
    23    1.501205832556e-05
    24    1.984612232872e-17
    25    1.346700463199e-03
    26   -6.979087676822e-04
    27    3.701560043231e-17
    28    2.874814793530e-01
    29    8.859234557996e-03
    30    3.827373275442e-04
    31   -1.098473874602e-04
    32   -1.501205837292e-05
    33   -2.612594853788e-16
    34    1.346700463416e-03
    35    6.979087677800e-04
    36    6.556250957420e-16
    37    4.018427985679e-01
    38    1.385206330066e-02
    39   -1.081356391714e-02
    40    4.044605972787e-04
    41   -1.864659959941e-04
    42    2.030845474993e-16
    43    1.124518118029e-03
    44    2.406660011388e-03
    45   -4.189054369899e-16
    46   -5.243201245292e-02
    47   -4.002587436449e-03
    48    6.629848369307e-03
    49    2.219136333026e-13
    50   -1.267171914969e-04
    51    1.296051418256e-16
    52    1.000260394261e-12
    53   -1.900033822636e-03
    54   -2.893555315326e-16
    55    4.018427981926e-01
    56    1.385206328826e-02
    57   -1.081356391106e-02
    58   -4.044605971850e-04
    59   -1.864659960554e-04
    60    1.661806730483e-16
    61   -1.124518116798e-03
    62    2.406660013575e-03
    63   -1.063291076833e-15
    64    2.874814791062e-01
    65    8.859234550654e-03
    66    3.827373291257e-04
    67    1.098473871784e-04
    68   -1.501205825337e-05
    69   -5.128556202584e-16
    70   -1.346700463413e-03
    71    6.979087666478e-04
    72    2.441691084859e-15
    73   -8.168131376849e-04
    74    1.407883328139e-03
    75   -4.535629013115e-04
    76    1.034920844204e-03
    77   -4.535629013692e-04
    78    1.034920844227e-03
    79   -8.168131378433e-04
    80    1.407883328328e-03
    81   -8.168131376247e-04
    82    1.407883325290e-03
    83    2.874814790985e-01
    84    8.859234550381e-03
    85    3.827373272056e-04
    86    1.098473871870e-04
    87    1.501205824894e-05
    88    4.368316377581e-16
    89   -1.346700462674e-03
    90   -6.979087668846e-04
    91   -2.305961315075e-15
    92    4.018427981770e-01
    93    1.385206328764e-02
    94   -1.081356390846e-02
    95   -4.044605971802e-04
    96    1.864659960441e-04
    97   -3.836810382374e-16
    98   -1.124518116572e-03
    99   -2.406660012158e-03
   100    1.404071188844e-15
   101   -4.535629008578e-04
   102    1.034920843561e-03
   103   -4.535629008723e-04
   104    1.034920843500e-03
   105   -8.168131374784e-04
   106    1.407883325473e-03
Sym=X
Ene= -11.249835
Spin=Alpha
Occup=1
     1    1.302538399405e-13
     2    2.206243000791e-14
     3   -1.455646801013e-12
     4   -2.257506532312e-04
     5    1.655256877744e-14
     6   -1.500464711049e-16
     7    2.799350940212e-02
     8   -8.149089042453e-13
     9    5.713380179385e-17
    10    4.673232342727e-01
    11    1.737058973186e-02
    12    1.497214806604e-02
    13    5.552327772541e-04
    14    3.869941881454e-04
    15    5.058413304972e-16
    16    2.564619828632e-03
    17    1.036486146880e-02
    18   -4.313028295609e-16
    19    1.643825052997e-01
    20    5.349280615960e-03
    21   -1.713628816358e-02
    22   -3.770189749682e-04
    23    4.780212370267e-04
    24    2.099125712219e-16
    25   -6.547951625056e-03
    26   -3.857633866549e-03
    27   -1.257460314924e-16
    28   -1.643825053110e-01
    29   -5.349280616340e-03
    30    1.713628816391e-02
    31    3.770189749670e-04
    32    4.780212370215e-04
    33    5.605286707082e-17
    34    6.547951625163e-03
    35   -3.857633866583e-03
    36   -4.436268520777e-17
    37   -4.673232342676e-01
    38   -1.737058973162e-02
    39   -1.497214806657e-02
    40   -5.552327772441e-04
    41    3.869941881232e-04
    42   -2.311659895244e-16
    43   -2.564619828696e-03
    44    1.036486146909e-02
    45    1.225627764034e-16
    46   -3.201839096319e-12
    47   -2.418319450942e-13
    48    1.937940259655e-12
    49    2.257506532107e-04
    50    4.181821989385e-15
    51   -8.409975621684e-17
    52   -2.799350940222e-02
    53   -8.614901327031e-13
    54   -7.506276781009e-17
    55    4.673232343163e-01
    56    1.737058973341e-02
    57    1.497214806445e-02
    58   -5.552327772836e-04
    59   -3.869941881580e-04
    60    2.031520209878e-16
    61   -2.564619829026e-03
    62   -1.036486146821e-02
    63   -7.472582490946e-16
    64    1.643825053332e-01
    65    5.349280617043e-03
    66   -1.713628816290e-02
    67    3.770189749809e-04
    68   -4.780212370454e-04
    69   -3.495668289000e-16
    70    6.547951624706e-03
    71    3.857633866571e-03
    72    1.483752740926e-15
    73   -6.603522812268e-05
    74    3.730499747651e-03
    75   -8.607151661402e-04
    76   -1.281700483542e-04
    77    8.607151661718e-04
    78    1.281700483187e-04
    79    6.603522808384e-05
    80   -3.730499747708e-03
    81   -6.603522824269e-05
    82    3.730499747769e-03
    83   -1.643825053002e-01
    84   -5.349280616023e-03
    85    1.713628816275e-02
    86   -3.770189749650e-04
    87   -4.780212370430e-04
    88    3.878749239707e-16
    89   -6.547951624777e-03
    90    3.857633866483e-03
    91   -1.766071519637e-15
    92   -4.673232342778e-01
    93   -1.737058973214e-02
    94   -1.497214806529e-02
    95    5.552327772574e-04
    96   -3.869941881549e-04
    97   -7.583689618509e-16
    98    2.564619828910e-03
    99   -1.036486146821e-02
   100    1.443744798941e-15
   101   -8.607151662015e-04
   102   -1.281700482347e-04
   103    8.607151661430e-04
   104    1.281700483524e-04
   105    6.603522819239e-05
   106   -3.730499747547e-03
Sym=X
Ene= -11.249754
Spin=Alpha
Occup=1
     1   -7.160714759632e-02
     2   -5.006254498622e-03
     3    5.342707435290e-02
     4   -5.118708191684e-15
     5   -2.609288181085e-04
     6   -3.198368074738e-17
     7    7.413479552465e-13
     8    2.431055583063e-02
     9   -1.733766775621e-16
    10    4.615303983292e-01
    11    1.758601505019e-02
    12   -2.354332715503e-02
    13    3.481720310426e-04
    14    3.661260526914e-04
    15    2.104606640978e-16
    16    3.933926173924e-03
    17   -1.105254433758e-02
    18   -2.021782129347e-16
    19    1.726957296381e-01
    20    5.776678134806e-03
    21    1.406760574252e-02
    22   -1.224335000598e-04
    23    3.170753282281e-04
    24   -6.508116937805e-17
    25    5.213410291426e-03
    26    8.078657471624e-04
    27    1.285200770841e-16
    28   -1.726957296139e-01
    29   -5.776678134058e-03
    30   -1.406760574244e-02
    31    1.224335000517e-04
    32    3.170753282281e-04
    33   -6.424849641736e-18
    34   -5.213410291293e-03
    35    8.078657472249e-04
    36    2.256960477706e-16
    37   -4.615303982956e-01
    38   -1.758601504903e-02
    39    2.354332715405e-02
    40   -3.481720310106e-04
    41    3.661260526725e-04
    42   -8.671108243120e-17
    43   -3.933926173818e-03
    44   -1.105254433732e-02
    45   -2.179281984800e-16
    46    7.160714759083e-02
    47    5.006254498243e-03
    48   -5.342707435226e-02
    49    4.085951412283e-15
    50   -2.609288181215e-04
    51   -2.042997002941e-16
    52   -7.691858760171e-13
    53    2.431055583048e-02
    54   -2.885076940795e-17
    55   -4.615303982656e-01
    56   -1.758601504792e-02
    57    2.354332715470e-02
    58    3.481720309795e-04
    59    3.661260526493e-04
    60    2.759018998508e-17
    61    3.933926173679e-03
    62   -1.105254433789e-02
    63   -3.858961043552e-16
    64   -1.726957296080e-01
    65   -5.776678133884e-03
    66   -1.406760574322e-02
    67   -1.224335000236e-04
    68    3.170753281972e-04
    69    5.282410157631e-17
    70    5.213410291616e-03
    71    8.078657474171e-04
    72    6.047606446037e-16
    73   -1.785201696823e-03
    74    9.064231954512e-05
    75   -2.930812331072e-04
    76    5.634795676052e-04
    77    2.930812330697e-04
    78   -5.634795675180e-04
    79    1.785201696749e-03
    80   -9.064231944225e-05
    81    1.785201696742e-03
    82   -9.064231919948e-05
    83    1.726957296262e-01
    84    5.776678134424e-03
    85    1.406760574338e-02
    86    1.224335000393e-04
    87    3.170753282048e-04
    88    3.046300864862e-16
    89   -5.213410291744e-03
    90    8.078657473507e-04
    91   -7.731578893907e-16
    92    4.615303983034e-01
    93    1.758601504924e-02
    94   -2.354332715576e-02
    95   -3.481720310117e-04
    96    3.661260526681e-04
    97   -2.212484874160e-16
    98   -3.933926173768e-03
    99   -1.105254433809e-02
   100    4.850382326535e-16
   101    2.930812330303e-04
   102   -5.634795675402e-04
   103   -2.930812330580e-04
   104    5.634795675971e-04
   105   -1.785201696813e-03
   106    9.064231935352e-05
Sym=X
Ene= -11.248634
Spin=Alpha
Occup=1
     1    2.832629313401e-12
     2    1.771922994616e-13
     3   -1.442602114154e-12
     4    3.032242522894e-04
     5   -6.922634937078e-14
     6    1.618829891239e-16
     7   -1.171642823355e-03
     8    6.437793007019e-13
     9   -2.792681888618e-16
    10    2.786723041655e-01
    11    1.071832531058e-02
    12   -1.172943109683e-02
    13   -1.679223016513e-04
    14    2.380088554222e-04
    15    3.484246291874e-16
    16   -1.001592942549e-03
    17   -9.879635540071e-04
    18   -5.403678785828e-16
    19   -4.096936377114e-01
    20   -1.439601633827e-02
    21    9.319776337455e-03
    22   -5.227697923385e-04
    23    4.321881510337e-04
    24    2.070984562025e-17
    25    1.619743233647e-03
    26    5.490509793754e-05
    27    5.411565884486e-16
    28   -4.096936377068e-01
    29   -1.439601633810e-02
    30    9.319776336748e-03
    31   -5.227697923420e-04
    32   -4.321881510428e-04
    33    1.758535407051e-16
    34    1.619743233406e-03
    35   -5.490509783788e-05
    36   -2.822970251012e-16
    37    2.786723041697e-01
    38    1.071832531071e-02
    39   -1.172943109619e-02
    40   -1.679223016438e-04
    41   -2.380088554228e-04
    42    1.595001008553e-17
    43   -1.001592942579e-03
    44    9.879635536656e-04
    45    1.843644204053e-16
    46    5.040545441432e-12
    47    2.869950913205e-13
    48   -2.242307901856e-12
    49    3.032242522843e-04
    50    6.209994270114e-14
    51   -1.091275374001e-16
    52   -1.171642822902e-03
    53   -3.175298565750e-13
    54   -4.679792712511e-17
    55   -2.786723042409e-01
    56   -1.071832531348e-02
    57    1.172943110087e-02
    58   -1.679223017097e-04
    59    2.380088555256e-04
    60   -1.372962238202e-16
    61   -1.001592942959e-03
    62   -9.879635546818e-04
    63   -8.397997188636e-17
    64    4.096936378034e-01
    65    1.439601634150e-02
    66   -9.319776339709e-03
    67   -5.227697924470e-04
    68    4.321881511331e-04
    69    4.309097922102e-16
    70    1.619743234190e-03
    71    5.490509792052e-05
    72   -1.335478271238e-16
    73   -3.422899388553e-04
    74    2.072385861931e-03
    75    8.624966460342e-04
    76   -1.873028270389e-03
    77    8.624966460125e-04
    78   -1.873028270381e-03
    79   -3.422899388382e-04
    80    2.072385861994e-03
    81    3.422899390071e-04
    82   -2.072385862426e-03
    83    4.096936378103e-01
    84    1.439601634174e-02
    85   -9.319776339875e-03
    86   -5.227697924434e-04
    87   -4.321881511200e-04
    88    7.868879781992e-18
    89    1.619743234224e-03
    90   -5.490509795517e-05
    91   -4.041171179805e-16
    92   -2.786723042302e-01
    93   -1.071832531307e-02
    94    1.172943110086e-02
    95   -1.679223017274e-04
    96   -2.380088555162e-04
    97   -4.501318238215e-16
    98   -1.001592943026e-03
    99    9.879635546932e-04
   100    1.101585761242e-15
   101   -8.624966462443e-04
   102    1.873028270764e-03
   103   -8.624966462619e-04
   104    1.873028270788e-03
   105    3.422899389861e-04
   106   -2.072385862386e-03
Sym=X
Ene= -11.248602
Spin=Alpha
Occup=1
     1    3.462265105638e-02
     2    2.014625152100e-03
     3   -1.525245625350e-02
     4   -4.188938421395e-14
     5   -5.410927688072e-04
     6   -2.032385127073e-16
     7    3.872145659667e-13
     8    3.900162942800e-03
     9    6.134054083677e-16
    10   -2.864002356288e-01