Jobname.Temp
SP        R                             VDZ                 
Number of atoms                            I               18
Charge                                     I                0
Multiplicity                               I                1
Number of electrons                        I               68
Number of alpha electrons                  I               34
Number of beta electrons                   I               34
Atomic numbers                             I   N=          18
           6           6           6           6           6           6
           6           6           1           1           1           1
           1           6           6           1           1           1
Current cartesian coordinates              R   N=          54
 -8.30642280E-17 -1.35654179E+00 -8.30642280E-17 -2.35248226E+00 -2.65901473E+00
 -5.41125694E-16 -4.61136638E+00 -1.34042242E+00 -8.23641474E-16 -4.61136638E+00
  1.34042242E+00 -6.59487071E-16 -2.35248226E+00  2.65901473E+00 -2.15490306E-16
  8.30642280E-17  1.35654179E+00  8.30642280E-17  2.35248226E+00  2.65901473E+00
  5.41125694E-16  4.61136638E+00  1.34042242E+00  8.23641474E-16 -2.35044135E+00
 -4.73325372E+00 -6.67807999E-16 -6.41116044E+00 -2.36784573E+00 -1.17598197E-15
 -6.41116044E+00  2.36784573E+00 -8.86004497E-16 -2.35044135E+00  4.73325372E+00
 -8.81515971E-17  2.35044135E+00  4.73325372E+00  6.67807999E-16  4.61136638E+00
 -1.34042242E+00  6.59487071E-16  2.35248226E+00 -2.65901473E+00  2.15490306E-16
  6.41116044E+00  2.36784573E+00  1.17598197E-15  6.41116044E+00 -2.36784573E+00
  8.86004497E-16  2.35044135E+00 -4.73325372E+00  8.81515971E-17
Nuclear charges                            R   N=          18
  6.00000000E+00  6.00000000E+00  6.00000000E+00  6.00000000E+00  6.00000000E+00
  6.00000000E+00  6.00000000E+00  6.00000000E+00  1.00000000E+00  1.00000000E+00
  1.00000000E+00  1.00000000E+00  1.00000000E+00  6.00000000E+00  6.00000000E+00
  1.00000000E+00  1.00000000E+00  1.00000000E+00
Number of basis functions                  I              106
Number of contracted shells                I               66
Number of primitive shells                 I              142
Highest angular momentum                   I                1
Largest degree of contraction              I                5
Shell types                                I   N=          66
           0           0           0           1           1           0
           0           0           1           1           0           0
           0           1           1           0           0           0
           1           1           0           0           0           1
           1           0           0           0           1           1
           0           0           0           1           1           0
           0           0           1           1           0           0
           0           0           0           0           0           0
           0           0           0           0           0           1
           1           0           0           0           1           1
           0           0           0           0           0           0
Number of primitives per shell             I   N=          66
           5           1           1           3           1           5
           1           1           3           1           5           1
           1           3           1           5           1           1
           3           1           5           1           1           3
           1           5           1           1           3           1
           5           1           1           3           1           5
           1           1           3           1           3           1
           3           1           3           1           3           1
           3           1           5           1           1           3
           1           5           1           1           3           1
           3           1           3           1           3           1
Shell to atom map                          I   N=          66
           1           1           1           1           1           2
           2           2           2           2           3           3
           3           3           3           4           4           4
           4           4           5           5           5           5
           5           6           6           6           6           6
           7           7           7           7           7           8
           8           8           8           8           9           9
          10          10          11          11          12          12
          13          13          14          14          14          14
          14          15          15          15          15          15
          16          16          17          17          18          18
Primitive exponents                        R   N=         142
  1.23840169E+03  1.86290050E+02  4.22511764E+01  1.16765579E+01  3.59305065E+00
  4.02451470E-01  1.30901830E-01  9.46809706E+00  2.01035451E+00  5.47710050E-01
  1.52686140E-01  1.23840169E+03  1.86290050E+02  4.22511764E+01  1.16765579E+01
  3.59305065E+00  4.02451470E-01  1.30901830E-01  9.46809706E+00  2.01035451E+00
  5.47710050E-01  1.52686140E-01  1.23840169E+03  1.86290050E+02  4.22511764E+01
  1.16765579E+01  3.59305065E+00  4.02451470E-01  1.30901830E-01  9.46809706E+00
  2.01035451E+00  5.47710050E-01  1.52686140E-01  1.23840169E+03  1.86290050E+02
  4.22511764E+01  1.16765579E+01  3.59305065E+00  4.02451470E-01  1.30901830E-01
  9.46809706E+00  2.01035451E+00  5.47710050E-01  1.52686140E-01  1.23840169E+03
  1.86290050E+02  4.22511764E+01  1.16765579E+01  3.59305065E+00  4.02451470E-01
  1.30901830E-01  9.46809706E+00  2.01035451E+00  5.47710050E-01  1.52686140E-01
  1.23840169E+03  1.86290050E+02  4.22511764E+01  1.16765579E+01  3.59305065E+00
  4.02451470E-01  1.30901830E-01  9.46809706E+00  2.01035451E+00  5.47710050E-01
  1.52686140E-01  1.23840169E+03  1.86290050E+02  4.22511764E+01  1.16765579E+01
  3.59305065E+00  4.02451470E-01  1.30901830E-01  9.46809706E+00  2.01035451E+00
  5.47710050E-01  1.52686140E-01  1.23840169E+03  1.86290050E+02  4.22511764E+01
  1.16765579E+01  3.59305065E+00  4.02451470E-01  1.30901830E-01  9.46809706E+00
  2.01035451E+00  5.47710050E-01  1.52686140E-01  1.30107010E+01  1.96225720E+00
  4.44537960E-01  1.21949620E-01  1.30107010E+01  1.96225720E+00  4.44537960E-01
  1.21949620E-01  1.30107010E+01  1.96225720E+00  4.44537960E-01  1.21949620E-01
  1.30107010E+01  1.96225720E+00  4.44537960E-01  1.21949620E-01  1.30107010E+01
  1.96225720E+00  4.44537960E-01  1.21949620E-01  1.23840169E+03  1.86290050E+02
  4.22511764E+01  1.16765579E+01  3.59305065E+00  4.02451470E-01  1.30901830E-01
  9.46809706E+00  2.01035451E+00  5.47710050E-01  1.52686140E-01  1.23840169E+03
  1.86290050E+02  4.22511764E+01  1.16765579E+01  3.59305065E+00  4.02451470E-01
  1.30901830E-01  9.46809706E+00  2.01035451E+00  5.47710050E-01  1.52686140E-01
  1.30107010E+01  1.96225720E+00  4.44537960E-01  1.21949620E-01  1.30107010E+01
  1.96225720E+00  4.44537960E-01  1.21949620E-01  1.30107010E+01  1.96225720E+00
  4.44537960E-01  1.21949620E-01
Contraction coefficients                   R   N=         142
  5.51736180E-03  4.10888293E-02  1.82253822E-01  4.68284597E-01  4.45758170E-01
  1.00000000E+00  1.00000000E+00  5.68883296E-02  3.12940593E-01  7.60650166E-01
  1.00000000E+00  5.51736180E-03  4.10888293E-02  1.82253822E-01  4.68284597E-01
  4.45758170E-01  1.00000000E+00  1.00000000E+00  5.68883296E-02  3.12940593E-01
  7.60650166E-01  1.00000000E+00  5.51736180E-03  4.10888293E-02  1.82253822E-01
  4.68284597E-01  4.45758170E-01  1.00000000E+00  1.00000000E+00  5.68883296E-02
  3.12940593E-01  7.60650166E-01  1.00000000E+00  5.51736180E-03  4.10888293E-02
  1.82253822E-01  4.68284597E-01  4.45758170E-01  1.00000000E+00  1.00000000E+00
  5.68883296E-02  3.12940593E-01  7.60650166E-01  1.00000000E+00  5.51736180E-03
  4.10888293E-02  1.82253822E-01  4.68284597E-01  4.45758170E-01  1.00000000E+00
  1.00000000E+00  5.68883296E-02  3.12940593E-01  7.60650166E-01  1.00000000E+00
  5.51736180E-03  4.10888293E-02  1.82253822E-01  4.68284597E-01  4.45758170E-01
  1.00000000E+00  1.00000000E+00  5.68883296E-02  3.12940593E-01  7.60650166E-01
  1.00000000E+00  5.51736180E-03  4.10888293E-02  1.82253822E-01  4.68284597E-01
  4.45758170E-01  1.00000000E+00  1.00000000E+00  5.68883296E-02  3.12940593E-01
  7.60650166E-01  1.00000000E+00  5.51736180E-03  4.10888293E-02  1.82253822E-01
  4.68284597E-01  4.45758170E-01  1.00000000E+00  1.00000000E+00  5.68883296E-02
  3.12940593E-01  7.60650166E-01  1.00000000E+00  3.34854882E-02  2.34721871E-01
  8.13770284E-01  1.00000000E+00  3.34854882E-02  2.34721871E-01  8.13770284E-01
  1.00000000E+00  3.34854882E-02  2.34721871E-01  8.13770284E-01  1.00000000E+00
  3.34854882E-02  2.34721871E-01  8.13770284E-01  1.00000000E+00  3.34854882E-02
  2.34721871E-01  8.13770284E-01  1.00000000E+00  5.51736180E-03  4.10888293E-02
  1.82253822E-01  4.68284597E-01  4.45758170E-01  1.00000000E+00  1.00000000E+00
  5.68883296E-02  3.12940593E-01  7.60650166E-01  1.00000000E+00  5.51736180E-03
  4.10888293E-02  1.82253822E-01  4.68284597E-01  4.45758170E-01  1.00000000E+00
  1.00000000E+00  5.68883296E-02  3.12940593E-01  7.60650166E-01  1.00000000E+00
  3.34854882E-02  2.34721871E-01  8.13770284E-01  1.00000000E+00  3.34854882E-02
  2.34721871E-01  8.13770284E-01  1.00000000E+00  3.34854882E-02  2.34721871E-01
  8.13770284E-01  1.00000000E+00
Coordinates of each shell                  R   N=         198
 -8.30642280E-17 -1.35654179E+00 -8.30642280E-17 -8.30642280E-17 -1.35654179E+00
 -8.30642280E-17 -8.30642280E-17 -1.35654179E+00 -8.30642280E-17 -8.30642280E-17
 -1.35654179E+00 -8.30642280E-17 -8.30642280E-17 -1.35654179E+00 -8.30642280E-17
 -2.35248226E+00 -2.65901473E+00 -5.41125694E-16 -2.35248226E+00 -2.65901473E+00
 -5.41125694E-16 -2.35248226E+00 -2.65901473E+00 -5.41125694E-16 -2.35248226E+00
 -2.65901473E+00 -5.41125694E-16 -2.35248226E+00 -2.65901473E+00 -5.41125694E-16
 -4.61136638E+00 -1.34042242E+00 -8.23641474E-16 -4.61136638E+00 -1.34042242E+00
 -8.23641474E-16 -4.61136638E+00 -1.34042242E+00 -8.23641474E-16 -4.61136638E+00
 -1.34042242E+00 -8.23641474E-16 -4.61136638E+00 -1.34042242E+00 -8.23641474E-16
 -4.61136638E+00  1.34042242E+00 -6.59487071E-16 -4.61136638E+00  1.34042242E+00
 -6.59487071E-16 -4.61136638E+00  1.34042242E+00 -6.59487071E-16 -4.61136638E+00
  1.34042242E+00 -6.59487071E-16 -4.61136638E+00  1.34042242E+00 -6.59487071E-16
 -2.35248226E+00  2.65901473E+00 -2.15490306E-16 -2.35248226E+00  2.65901473E+00
 -2.15490306E-16 -2.35248226E+00  2.65901473E+00 -2.15490306E-16 -2.35248226E+00
  2.65901473E+00 -2.15490306E-16 -2.35248226E+00  2.65901473E+00 -2.15490306E-16
  8.30642280E-17  1.35654179E+00  8.30642280E-17  8.30642280E-17  1.35654179E+00
  8.30642280E-17  8.30642280E-17  1.35654179E+00  8.30642280E-17  8.30642280E-17
  1.35654179E+00  8.30642280E-17  8.30642280E-17  1.35654179E+00  8.30642280E-17
  2.35248226E+00  2.65901473E+00  5.41125694E-16  2.35248226E+00  2.65901473E+00
  5.41125694E-16  2.35248226E+00  2.65901473E+00  5.41125694E-16  2.35248226E+00
  2.65901473E+00  5.41125694E-16  2.35248226E+00  2.65901473E+00  5.41125694E-16
  4.61136638E+00  1.34042242E+00  8.23641474E-16  4.61136638E+00  1.34042242E+00
  8.23641474E-16  4.61136638E+00  1.34042242E+00  8.23641474E-16  4.61136638E+00
  1.34042242E+00  8.23641474E-16  4.61136638E+00  1.34042242E+00  8.23641474E-16
 -2.35044135E+00 -4.73325372E+00 -6.67807999E-16 -2.35044135E+00 -4.73325372E+00
 -6.67807999E-16 -6.41116044E+00 -2.36784573E+00 -1.17598197E-15 -6.41116044E+00
 -2.36784573E+00 -1.17598197E-15 -6.41116044E+00  2.36784573E+00 -8.86004497E-16
 -6.41116044E+00  2.36784573E+00 -8.86004497E-16 -2.35044135E+00  4.73325372E+00
 -8.81515971E-17 -2.35044135E+00  4.73325372E+00 -8.81515971E-17  2.35044135E+00
  4.73325372E+00  6.67807999E-16  2.35044135E+00  4.73325372E+00  6.67807999E-16
  4.61136638E+00 -1.34042242E+00  6.59487071E-16  4.61136638E+00 -1.34042242E+00
  6.59487071E-16  4.61136638E+00 -1.34042242E+00  6.59487071E-16  4.61136638E+00
 -1.34042242E+00  6.59487071E-16  4.61136638E+00 -1.34042242E+00  6.59487071E-16
  2.35248226E+00 -2.65901473E+00  2.15490306E-16  2.35248226E+00 -2.65901473E+00
  2.15490306E-16  2.35248226E+00 -2.65901473E+00  2.15490306E-16  2.35248226E+00
 -2.65901473E+00  2.15490306E-16  2.35248226E+00 -2.65901473E+00  2.15490306E-16
  6.41116044E+00  2.36784573E+00  1.17598197E-15  6.41116044E+00  2.36784573E+00
  1.17598197E-15  6.41116044E+00 -2.36784573E+00  8.86004497E-16  6.41116044E+00
 -2.36784573E+00  8.86004497E-16  2.35044135E+00 -4.73325372E+00  8.81515971E-17
  2.35044135E+00 -4.73325372E+00  8.81515971E-17
Overlap Matrix                             R   N=        5671
  1.00000000E+00  3.25564687E-01  1.00000000E+00  1.51774114E-01  7.98485328E-01
  1.00000000E+00 -5.21023494E-33  7.66487485E-33  6.58268560E-33  1.00000000E+00
 -1.12675813E-16  2.64936578E-16  8.68434663E-18  4.06400728E-48  1.00000000E+00
 -3.45816102E-33  7.66487485E-33 -3.14581481E-33  0.00000000E+00  1.12713251E-48
  1.00000000E+00 -4.83844135E-34  0.00000000E+00  0.00000000E+00  5.31899421E-01
  0.00000000E+00  0.00000000E+00  1.00000000E+00 -1.31133109E-18  0.00000000E+00
  1.72759651E-16  0.00000000E+00  5.31899421E-01  0.00000000E+00  0.00000000E+00
  1.00000000E+00  5.41617614E-36  0.00000000E+00  0.00000000E+00  0.00000000E+00
  0.00000000E+00  5.31899421E-01  0.00000000E+00  0.00000000E+00  1.00000000E+00
  4.54425955E-07  2.21808428E-02  6.04028385E-02 -2.67099641E-02 -1.47882117E-02
 -5.20080663E-18 -1.03418324E-01 -5.72584847E-02 -2.01370060E-17  1.00000000E+00
  2.21808428E-02  2.33403977E-01  3.90925819E-01 -2.26293174E-01 -1.25289249E-01
 -4.40624718E-17 -5.05247759E-01 -2.79734963E-01 -9.83788629E-17  3.25564687E-01
  1.00000000E+00  6.04028385E-02  3.90925819E-01  6.22974342E-01 -1.84742734E-01
 -1.02284475E-01 -3.59720152E-17 -5.07537792E-01 -2.81002860E-01 -9.88247645E-17
  1.51774114E-01  7.98485328E-01  1.00000000E+00  2.67099641E-02  2.26293174E-01
  1.84742734E-01 -2.12892747E-01 -1.69439358E-01 -5.95894456E-17 -7.63444444E-02
 -1.64326387E-01 -5.77912855E-17  3.76228190E-17  0.00000000E+00 -1.30708616E-16
  1.00000000E+00  1.47882117E-02  1.25289249E-01  1.02284475E-01 -1.69439358E-01
 -6.68774814E-04 -3.29922321E-17 -1.64326387E-01  1.29475496E-01 -3.19966646E-17
  3.38417257E-17 -2.53716937E-16 -1.13339923E-16  0.00000000E+00  1.00000000E+00
  5.20080663E-18  4.40624718E-17  3.59720152E-17 -5.95894456E-17 -3.29922321E-17
  9.31428484E-02 -5.77912855E-17 -3.19966646E-17  2.20456277E-01  3.78697846E-32
  6.13189988E-32  3.85662463E-33  0.00000000E+00  0.00000000E+00  1.00000000E+00
  1.03418324E-01  5.05247759E-01  5.07537792E-01 -7.63444444E-02 -1.64326387E-01
 -5.77912855E-17  8.92528393E-02 -2.69377397E-01 -9.47362524E-17  3.82804848E-17
  0.00000000E+00  3.45519301E-16  5.31899421E-01  0.00000000E+00  0.00000000E+00
  1.00000000E+00  5.72584847E-02  2.79734963E-01  2.81002860E-01 -1.64326387E-01
  1.29475496E-01 -3.19966646E-17 -2.69377397E-01  4.26649900E-01 -5.24515776E-17
  3.82741490E-17 -2.92906421E-16  3.45519301E-16  0.00000000E+00  5.31899421E-01
  0.00000000E+00  0.00000000E+00  1.00000000E+00  2.01370060E-17  9.83788629E-17
  9.88247645E-17 -5.77912855E-17 -3.19966646E-17  2.20456277E-01 -9.47362524E-17
 -5.24515776E-17  5.75793117E-01 -4.33294091E-35  0.00000000E+00  7.67206968E-32
  0.00000000E+00  0.00000000E+00  5.31899421E-01  0.00000000E+00  0.00000000E+00
  1.00000000E+00  5.09131209E-18  1.23805332E-04  1.01055420E-02 -5.59047903E-05
  1.95419227E-07 -8.97820997E-21 -2.54126170E-02  8.88316359E-05 -4.08122113E-18
  9.15345739E-07  2.56269132E-02  6.34750874E-02 -3.10729438E-02  1.81384004E-02
 -3.88625377E-18 -1.05194093E-01  6.14055945E-02 -1.31564922E-17  1.00000000E+00
  1.23805332E-04  1.38557197E-02  9.77373407E-02 -1.59178531E-02  5.56420040E-05
 -2.55637893E-18 -2.09479335E-01  7.32250128E-04 -3.36420090E-17  2.56269132E-02
  2.52426747E-01  4.06253415E-01 -2.38720325E-01  1.39349682E-01 -2.98564491E-17
 -5.06512029E-01  2.95669379E-01 -6.33488187E-17  3.25564687E-01  1.00000000E+00
  1.01055420E-02  9.77373407E-02  2.48624619E-01 -8.04825095E-02  2.81332418E-04
 -1.29253480E-17 -3.69999744E-01  1.29336079E-03 -5.94213013E-17  6.34750874E-02
  4.06253415E-01  6.39054445E-01 -1.84963825E-01  1.07970070E-01 -2.31331917E-17
 -5.00903270E-01  2.92395344E-01 -6.26473383E-17  1.51774114E-01  7.98485328E-01
  1.00000000E+00  5.59047903E-05  1.59178531E-02  8.04825095E-02 -1.87527745E-02
  7.16406965E-05 -3.29141213E-18 -1.66607334E-01  7.22757882E-04 -3.32059036E-17
  3.10729438E-02  2.38720325E-01  1.84963825E-01 -2.13727380E-01  1.85809564E-01
 -3.98107387E-17 -5.58193218E-02  1.67513910E-01 -3.58907924E-17  1.58249074E-16
  9.82398156E-16  0.00000000E+00  1.00000000E+00 -1.95419227E-07 -5.56420040E-05
 -2.81332418E-04  7.16406965E-05  1.74167342E-03  1.15053685E-20  7.22757882E-04
  4.01539696E-02  1.16073631E-19 -1.81384004E-02 -1.39349682E-01 -1.07970070E-01
  1.85809564E-01 -3.88026211E-03  2.32389671E-17  1.67513910E-01  1.33365296E-01
  2.09507528E-17 -8.88908195E-17  2.64936578E-16  0.00000000E+00  2.92842587E-31
  1.00000000E+00  8.97820997E-21  2.55637893E-18  1.29253480E-17 -3.29141213E-18
  1.15053685E-20  1.74192384E-03 -3.32059036E-17  1.16073631E-19  4.01564960E-02
  3.88625377E-18  2.98564491E-17  2.31331917E-17 -3.98107387E-17  2.32389671E-17
  1.04583496E-01 -3.58907924E-17  2.09507528E-17  2.31149220E-01 -9.05579716E-33
  5.27316283E-32  8.16846279E-32  1.51219245E-46  3.25120582E-47  1.00000000E+00
  2.54126170E-02  2.09479335E-01  3.69999744E-01 -1.66607334E-01  7.22757882E-04
 -3.32059036E-17 -4.43120195E-01  2.23835749E-03 -1.02837596E-16  1.05194093E-01
  5.06512029E-01  5.00903270E-01 -5.58193218E-02  1.67513910E-01 -3.58907924E-17
  1.31036348E-01  2.69761602E-01 -5.77979325E-17  0.00000000E+00  0.00000000E+00
  0.00000000E+00  5.31899421E-01  0.00000000E+00  0.00000000E+00  1.00000000E+00
 -8.88316359E-05 -7.32250128E-04 -1.29336079E-03  7.22757882E-04  4.01539696E-02
  1.16073631E-19  2.23835749E-03  1.97212789E-01  3.59476235E-19 -6.14055945E-02
 -2.95669379E-01 -2.92395344E-01  1.67513910E-01  1.33365296E-01  2.09507528E-17
  2.69761602E-01  4.35696095E-01  3.37387422E-17 -1.92378115E-17  0.00000000E+00
  1.72759651E-16  0.00000000E+00  5.31899421E-01  0.00000000E+00  0.00000000E+00
  1.00000000E+00  4.08122113E-18  3.36420090E-17  5.94213013E-17 -3.32059036E-17
  1.16073631E-19  4.01564960E-02 -1.02837596E-16  3.59476235E-19  1.97220614E-01
  1.31564922E-17  6.33488187E-17  6.26473383E-17 -3.58907924E-17  2.09507528E-17
  2.31149220E-01 -5.77979325E-17  3.37387422E-17  5.93165692E-01  0.00000000E+00
  0.00000000E+00  1.53441394E-31  0.00000000E+00  0.00000000E+00  5.31899421E-01
  0.00000000E+00  0.00000000E+00  1.00000000E+00  1.07647579E-23  8.51324176E-06
  4.00146466E-03 -1.66532143E-06  9.73965617E-07 -2.08165917E-22 -8.66587387E-03
  5.06824871E-03 -1.08323808E-18  6.87151125E-18  1.31660971E-04  1.03226914E-02
 -2.96909035E-05  5.25688332E-05 -1.55574877E-21 -1.27595922E-02  2.25913258E-02
 -6.68579180E-19  4.91557201E-07  2.25430805E-02  6.07399443E-02 -3.97810681E-19
  3.11000632E-02  1.90432964E-18  0.00000000E+00  1.18617913E-01  7.26325238E-18
  1.00000000E+00  8.51324176E-06  3.20628098E-03  4.76490429E-02 -2.91005757E-03
  1.70195133E-03 -3.63758487E-19 -9.36467490E-02  5.47694349E-02 -1.17058852E-17
  1.31660971E-04  1.43289740E-02  9.93619841E-02 -8.10839199E-03  1.43562053E-02
 -4.24864838E-19 -1.04527133E-01  1.85069121E-01 -5.47702965E-18  2.25430805E-02
  2.35464507E-01  3.92616076E-01  1.85436128E-16  2.60613207E-01  1.59579565E-17
  0.00000000E+00  5.78561460E-01  3.54266720E-17  3.25564687E-01  1.00000000E+00
  4.00146466E-03  4.76490429E-02  1.54454012E-01 -3.69787036E-02  2.16270476E-02
 -4.62235435E-18 -2.21602679E-01  1.29604644E-01 -2.77004332E-17  1.03226914E-02
  9.93619841E-02  2.51355500E-01 -4.01348807E-02  7.10602777E-02 -2.10299399E-18
 -1.83389492E-01  3.24697818E-01 -9.60927231E-18  6.07399443E-02  3.92616076E-01
  6.24757886E-01  0.00000000E+00  2.11518762E-01  1.29517887E-17  0.00000000E+00
  5.80163859E-01  3.55247906E-17  1.51774114E-01  7.98485328E-01  1.00000000E+00
  1.66532143E-06  2.91005757E-03  3.69787036E-02 -2.50888976E-03  1.60465157E-03
 -3.42962586E-19 -6.89587395E-02  5.00751312E-02 -1.07025704E-17  2.96909035E-05
  8.10839199E-03  4.01348807E-02 -3.32732543E-03  9.12105529E-03 -2.69933147E-19
 -9.65290088E-03  8.96406884E-02 -2.65287210E-18 -3.97810681E-19  1.85436128E-16
  0.00000000E+00  9.43587435E-02  7.31882636E-17  4.48148864E-33  2.21630680E-01
 -2.72086714E-17 -1.66605062E-33  1.58249074E-16  9.82398156E-16  0.00000000E+00
  1.00000000E+00 -9.73965617E-07 -1.70195133E-03 -2.16270476E-02  1.60465157E-03
 -7.03681574E-04  2.00582158E-19  5.00751312E-02 -1.26249917E-02  6.25941361E-18
 -5.25688332E-05 -1.43562053E-02 -7.10602777E-02  9.12105529E-03 -1.43249116E-02
  4.77926534E-19  8.96406884E-02 -1.17735920E-01  4.69700732E-18 -3.11000632E-02
 -2.60613207E-01 -2.11518762E-01 -7.31882636E-17 -3.08466194E-01 -2.46659135E-17
  4.38777400E-19 -1.65867964E-01 -2.37274487E-17  1.76009538E-16 -2.64936578E-16
 -8.68434663E-18 -2.92842587E-31  1.00000000E+00  2.08165917E-22  3.63758487E-19
  4.62235435E-18 -3.42962586E-19  2.00582158E-19  2.34801189E-04 -1.07025704E-17
  6.25941361E-18  1.66615203E-02  1.55574877E-21  4.24864838E-19  2.10299399E-18
 -2.69933147E-19  4.77926534E-19  1.82425119E-03 -2.65287210E-18  4.69700732E-18
  4.09762051E-02 -1.90432964E-18 -1.59579565E-17 -1.29517887E-17 -4.48148864E-33
 -2.46659135E-17  9.43587435E-02  2.68673669E-35 -2.37274487E-17  2.21630680E-01
  2.89351020E-32  1.09068105E-31  3.85662463E-33  1.30048233E-46 -4.15291183E-47
  1.00000000E+00  8.66587387E-03  9.36467490E-02  2.21602679E-01 -6.89587395E-02
  5.00751312E-02 -1.07025704E-17 -2.54314253E-01  2.14934381E-01 -4.59379796E-17
  1.27595922E-02  1.04527133E-01  1.83389492E-01 -9.65290088E-03  8.96406884E-02
 -2.65287210E-18  4.41267406E-02  2.75536120E-01 -8.15435603E-18  0.00000000E+00
  0.00000000E+00  0.00000000E+00  2.21630680E-01 -4.38777400E-19 -2.68673669E-35
  5.77716375E-01  0.00000000E+00  0.00000000E+00  0.00000000E+00  0.00000000E+00
  0.00000000E+00  5.31899421E-01  0.00000000E+00  0.00000000E+00  1.00000000E+00
 -5.06824871E-03 -5.47694349E-02 -1.29604644E-01  5.00751312E-02 -1.26249917E-02
  6.25941361E-18  2.14934381E-01 -1.25163992E-02  2.68668930E-17 -2.25913258E-02
 -1.85069121E-01 -3.24697818E-01  8.96406884E-02 -1.17735920E-01  4.69700732E-18
  2.75536120E-01 -2.88097123E-01  1.44375863E-17 -1.18617913E-01 -5.78561460E-01
 -5.80163859E-01  2.72086714E-17 -1.65867964E-01 -2.37274487E-17  0.00000000E+00
 -5.62374907E-02 -3.88184786E-17  1.92378115E-17  0.00000000E+00 -1.72759651E-16
  0.00000000E+00  5.31899421E-01  0.00000000E+00  0.00000000E+00  1.00000000E+00
  1.08323808E-18  1.17058852E-17  2.77004332E-17 -1.07025704E-17  6.25941361E-18
  1.66615203E-02 -4.59379796E-17  2.68668930E-17  1.13188281E-01  6.68579180E-19
  5.47702965E-18  9.60927231E-18 -2.65287210E-18  4.69700732E-18  4.09762051E-02
 -8.15435603E-18  1.44375863E-17  1.99749680E-01 -7.26325238E-18 -3.54266720E-17
 -3.55247906E-17  1.66605062E-33 -2.37274487E-17  2.21630680E-01  0.00000000E+00
 -3.88184786E-17  5.77716375E-01 -9.12705934E-33  0.00000000E+00  7.67206968E-32
  0.00000000E+00  0.00000000E+00  5.31899421E-01  0.00000000E+00  0.00000000E+00
  1.00000000E+00  2.50896744E-18  1.07075630E-04  9.61099599E-03 -2.35668420E-05
  4.02272900E-05 -1.32662614E-21 -1.22303556E-02  2.08765375E-02 -6.88471941E-19
  1.70775770E-23  9.35629526E-06  4.13454570E-03 -2.55946580E-23  2.17364055E-06
  1.33097097E-22  6.08708719E-19  1.03808638E-02  6.35644582E-19  6.87151125E-18
  1.31660971E-04  1.03226914E-02  2.96909035E-05  5.25688332E-05  7.99357411E-21
  1.27595922E-02  2.25913258E-02  3.43521866E-18  9.15345739E-07  2.56269132E-02
  6.34750874E-02  3.10729438E-02  1.81384004E-02  6.10756717E-18  1.05194093E-01
  6.14055945E-02  2.06765087E-17  1.00000000E+00  1.07075630E-04  1.27998552E-02
  9.40076111E-02 -7.40464948E-03  1.26393253E-02 -4.16822991E-19 -1.02306165E-01
  1.74630941E-01 -5.75902505E-18  9.35629526E-06  3.37637365E-03  4.88735110E-02
  0.00000000E+00  3.56310265E-03  2.18177113E-19  0.00000000E+00  1.11112420E-01
  6.80367350E-18  1.31660971E-04  1.43289740E-02  9.93619841E-02  8.10839199E-03
  1.43562053E-02  2.18299292E-18  1.04527133E-01  1.85069121E-01  2.81414603E-17
  2.56269132E-02  2.52426747E-01  4.06253415E-01  2.38720325E-01  1.39349682E-01
  4.69218634E-17  5.06512029E-01  2.95669379E-01  9.95578745E-17  3.25564687E-01
  1.00000000E+00  9.61099599E-03  9.40076111E-02  2.42296606E-01 -3.93635461E-02
  6.71913863E-02 -2.21585520E-18 -1.83586714E-01  3.13372321E-01 -1.03344747E-17
  4.13454570E-03  4.88735110E-02  1.57072789E-01 -4.04385853E-18  4.38322159E-02
  2.68394914E-18  4.70782538E-17  2.60230849E-01  1.59345438E-17  1.03226914E-02
  9.93619841E-02  2.51355500E-01  4.01348807E-02  7.10602777E-02  1.08053682E-17
  1.83389492E-01  3.24697818E-01  4.93732867E-17  6.34750874E-02  4.06253415E-01
  6.39054445E-01  1.84963825E-01  1.07970070E-01  3.63557118E-17  5.00903270E-01
  2.92395344E-01  9.84554405E-17  1.51774114E-01  7.98485328E-01  1.00000000E+00
  2.35668420E-05  7.40464948E-03  3.93635461E-02 -3.21826689E-03  8.15987238E-03
 -2.69098416E-19 -1.30124301E-02  8.75644251E-02 -2.88772262E-18 -2.55946580E-23
  0.00000000E+00 -4.04385853E-18  2.51973142E-04  9.05788360E-21  5.54635408E-37
  1.71867952E-02  1.00868423E-17  6.17640957E-34 -2.96909035E-05 -8.10839199E-03
 -4.01348807E-02 -3.32732543E-03 -9.12105529E-03 -1.38694026E-18 -9.65290088E-03
 -8.96406884E-02 -1.36306903E-17 -3.10729438E-02 -2.38720325E-01 -1.84963825E-01
 -2.13727380E-01 -1.85809564E-01 -6.25658474E-17 -5.58193218E-02 -1.67513910E-01
 -5.64053298E-17  3.76228190E-17  0.00000000E+00 -1.30708616E-16  1.00000000E+00
 -4.02272900E-05 -1.26393253E-02 -6.71913863E-02  8.15987238E-03 -1.23663186E-02
  4.59336046E-19  8.75644251E-02 -1.11181108E-01  4.92918209E-18 -2.17364055E-06
 -3.56310265E-03 -4.38322159E-02 -9.05788360E-21 -3.66444979E-03 -2.39811740E-19
 -7.66094242E-19 -1.00283285E-01 -7.19296788E-18 -5.25688332E-05 -1.43562053E-02
 -7.10602777E-02 -9.12105529E-03 -1.43249116E-02 -2.45562859E-18 -8.96406884E-02
 -1.17735920E-01 -2.41336369E-17 -1.81384004E-02 -1.39349682E-01 -1.07970070E-01
 -1.85809564E-01 -3.88026211E-03 -3.65219465E-17 -1.67513910E-01  1.33365296E-01
 -3.29258297E-17 -3.38417257E-17  2.53716937E-16  1.13339923E-16  0.00000000E+00
  1.00000000E+00  1.32662614E-21  4.16822991E-19  2.21585520E-18 -2.69098416E-19
  4.59336046E-19  1.56213027E-03 -2.88772262E-18  4.92918209E-18  3.82865008E-02
 -1.33097097E-22 -2.18177113E-19 -2.68394914E-18 -5.54635408E-37 -2.39811740E-19
  2.51973142E-04 -4.69097431E-35 -7.19296788E-18  1.71867952E-02 -7.99357411E-21
 -2.18299292E-18 -1.08053682E-17 -1.38694026E-18 -2.45562859E-18  1.82425119E-03
 -1.36306903E-17 -2.41336369E-17  4.09762051E-02 -6.10756717E-18 -4.69218634E-17
 -3.63557118E-17 -6.25658474E-17 -3.65219465E-17  1.04583496E-01 -5.64053298E-17
 -3.29258297E-17  2.31149220E-01  1.73769672E-33  1.24563044E-33 -2.57486304E-32
  0.00000000E+00 -2.64637655E-48  1.00000000E+00  1.22303556E-02  1.02306165E-01
  1.83586714E-01 -1.30124301E-02  8.75644251E-02 -2.88772262E-18  2.96652311E-02
  2.76034828E-01 -9.10314909E-18  6.08708719E-19  0.00000000E+00  4.70782538E-17
  1.71867952E-02  7.66094242E-19  4.69097431E-35  1.15429912E-01  0.00000000E+00
  0.00000000E+00 -1.27595922E-02 -1.04527133E-01 -1.83389492E-01 -9.65290088E-03
 -8.96406884E-02 -1.36306903E-17  4.41267406E-02 -2.75536120E-01 -4.18977988E-17
 -1.05194093E-01 -5.06512029E-01 -5.00903270E-01 -5.58193218E-02 -1.67513910E-01
 -5.64053298E-17  1.31036348E-01 -2.69761602E-01 -9.08342007E-17  3.82804848E-17
  0.00000000E+00  3.45519301E-16  5.31899421E-01  0.00000000E+00  0.00000000E+00
  1.00000000E+00 -2.08765375E-02 -1.74630941E-01 -3.13372321E-01  8.75644251E-02
 -1.11181108E-01  4.92918209E-18  2.76034828E-01 -2.79798048E-01  1.55385698E-17
 -1.03808638E-02 -1.11112420E-01 -2.60230849E-01 -1.00868423E-17 -1.00283285E-01
 -7.19296788E-18  0.00000000E+00 -3.83017631E-01 -3.05211094E-17 -2.25913258E-02
 -1.85069121E-01 -3.24697818E-01 -8.96406884E-02 -1.17735920E-01 -2.41336369E-17
 -2.75536120E-01 -2.88097123E-01 -7.41815889E-17 -6.14055945E-02 -2.95669379E-01
 -2.92395344E-01 -1.67513910E-01  1.33365296E-01 -3.29258297E-17 -2.69761602E-01
  4.35696095E-01 -5.30232061E-17 -3.82741490E-17  2.92906421E-16 -3.45519301E-16
  0.00000000E+00  5.31899421E-01  0.00000000E+00  0.00000000E+00  1.00000000E+00
  6.88471941E-19  5.75902505E-18  1.03344747E-17 -2.88772262E-18  4.92918209E-18
  3.82865008E-02 -9.10314909E-18  1.55385698E-17  1.91378068E-01 -6.35644582E-19
 -6.80367350E-18 -1.59345438E-17 -6.17640957E-34 -7.19296788E-18  1.71867952E-02
  0.00000000E+00 -3.05211094E-17  1.15429912E-01 -3.43521866E-18 -2.81414603E-17
 -4.93732867E-17 -1.36306903E-17 -2.41336369E-17  4.09762051E-02 -4.18977988E-17
 -7.41815889E-17  1.99749680E-01 -2.06765087E-17 -9.95578745E-17 -9.84554405E-17
 -5.64053298E-17 -3.29258297E-17  2.31149220E-01 -9.08342007E-17 -5.30232061E-17
  5.93165692E-01 -1.45586997E-34  0.00000000E+00  0.00000000E+00  0.00000000E+00
  0.00000000E+00  5.31899421E-01  0.00000000E+00  0.00000000E+00  1.00000000E+00
  3.59568372E-07  2.11351843E-02  5.94089467E-02  1.76908380E-18  2.88913310E-02
  1.76908380E-18  7.16383872E-18  1.16994365E-01  7.16383872E-18  2.50896744E-18
  1.07075630E-04  9.61099599E-03  2.35668420E-05  4.02272900E-05  6.25304833E-21