magrid-mac-18.lut.ac.uk 158.125.33
Q-Chem Developer Version! Running on 158.125.33.*
                  Welcome to Q-Chem
     A Quantum Leap Into The Future Of Chemistry


 Q-Chem 5.1, Q-Chem, Inc., Pleasanton, CA (2018)

 Yihan Shao,  Zhengting Gan,  E. Epifanovsky,  A. T. B. Gilbert,  M. Wormit,  
 J. Kussmann,  A. W. Lange,  A. Behn,  Jia Deng,  Xintian Feng,  D. Ghosh,  
 M. Goldey,  P. R. Horn,  L. D. Jacobson,  I. Kaliman,  T. Kus,  A. Landau,  
 Jie Liu,  E. I. Proynov,  R. M. Richard,  R. P. Steele,  E. J. Sundstrom,  
 H. L. Woodcock III,  P. M. Zimmerman,  D. Zuev,  B. Albrecht,  E. Alguire,  
 S. A. Baeppler,  D. Barton,  Z. Benda,  Y. A. Bernard,  E. J. Berquist,  
 K. B. Bravaya,  H. Burton,  D. Casanova,  Chun-Min Chang,  Yunqing Chen,  
 A. Chien,  K. D. Closser,  M. P. Coons,  S. Coriani,  S. Dasgupta,  
 A. L. Dempwolff,  M. Diedenhofen,  Hainam Do,  R. G. Edgar,  Po-Tung Fang,  
 S. Faraji,  S. Fatehi,  Qingguo Feng,  K. D. Fenk,  J. Fosso-Tande,  
 Qinghui Ge,  A. Ghysels,  G. Gidofalvi,  J. Gomes,  J. Gonthier,  A. Gunina,  
 M. W. D. Hanson-Heine,  P. H. P. Harbach,  A. W. Hauser,  J. E. Herr,  
 E. G. Hohenstein,  Z. C. Holden,  Kerwin Hui,  T.-C. Jagau,  Hyunjun Ji,  
 B. Kaduk,  K. Khistyaev,  Jaehoon Kim,  P. Klunzinger,  K. Koh,  
 D. Kosenkov,  L. Koulias,  T. Kowalczyk,  C. M. Krauter,  A. Kunitsa,  
 Ka Un Lao,  A. Laurent,  K. V. Lawler,  Joonho Lee,  D. Lefrancois,  
 S. Lehtola,  D. S. Levine,  Yi-Pei Li,  You-Sheng Lin,  Fenglai Liu,  
 E. Livshits,  A. Luenser,  P. Manohar,  E. Mansoor,  S. F. Manzer,  
 Shan-Ping Mao,  Yuezhi Mao,  N. Mardirossian,  A. V. Marenich,  
 T. Markovich,  L. A. Martinez-Martinez,  S. A. Maurer,  N. J. Mayhall,  
 S. C. McKenzie,  J.-M. Mewes,  A. F. Morrison,  J. W. Mullinax,  K. Nanda,  
 T. S. Nguyen-Beck,  R. Olivares-Amaya,  J. A. Parkhill,  T. M. Perrine,  
 F. Plasser,  P. Pokhilko,  S. Prager,  A. Prociuk,  E. Ramos,  D. R. Rehn,  
 F. Rob,  M. Schneider,  N. Sergueev,  S. M. Sharada,  S. Sharma,  
 D. W. Small,  T. Stauch,  T. Stein,  Yu-Chuan Su,  A. J. W. Thom,  
 A. Tkatchenko,  T. Tsuchimochi,  N. M. Tubman,  L. Vogt,  M. L. Vidal,  
 O. Vydrov,  M. A. Watson,  J. Wenzel,  M. de Wergifosse,  T. A. Wesolowski,  
 A. White,  J. Witte,  A. Yamada,  Jun Yang,  K. Yao,  S. Yeganeh,  
 S. R. Yost,  Zhi-Qiang You,  A. Zech,  Igor Ying Zhang,  Xing Zhang,  
 Yan Zhao,  Ying Zhu,  B. R. Brooks,  G. K. L. Chan,  C. J. Cramer,  
 M. S. Gordon,  W. J. Hehre,  A. Klamt,  M. W. Schmidt,  C. D. Sherrill,  
 D. G. Truhlar,  A. Aspuru-Guzik,  R. Baer,  A. T. Bell,  N. A. Besley,  
 Jeng-Da Chai,  R. A. DiStasio Jr.,  A. Dreuw,  B. D. Dunietz,  
 T. R. Furlani,  Chao-Ping Hsu,  Yousung Jung,  Jing Kong,  D. S. Lambrecht,  
 WanZhen Liang,  C. Ochsenfeld,  V. A. Rassolov,  L. V. Slipchenko,  
 J. E. Subotnik,  T. Van Voorhis,  J. M. Herbert,  A. I. Krylov,  
 P. M. W. Gill,  M. Head-Gordon

 Contributors to earlier versions of Q-Chem not listed above: 
 R. D. Adamson,  B. Austin,  J. Baker,  G. J. O. Beran,  K. Brandhorst,  
 S. T. Brown,  E. F. C. Byrd,  A. K. Chakraborty,  C.-L. Cheng,  
 Siu Hung Chien,  D. M. Chipman,  D. L. Crittenden,  H. Dachsel,  
 R. J. Doerksen,  A. D. Dutoi,  L. Fusti-Molnar,  W. A. Goddard III,  
 A. Golubeva-Zadorozhnaya,  S. R. Gwaltney,  G. Hawkins,  A. Heyden,  
 S. Hirata,  G. Kedziora,  F. J. Keil,  C. Kelley,  Jihan Kim,  R. A. King,  
 R. Z. Khaliullin,  P. P. Korambath,  W. Kurlancheek,  A. M. Lee,  M. S. Lee,  
 S. V. Levchenko,  Ching Yeh Lin,  D. Liotard,  R. C. Lochan,  I. Lotan,  
 P. E. Maslen,  N. Nair,  D. P. O'Neill,  D. Neuhauser,  E. Neuscamman,  
 C. M. Oana,  R. Olson,  B. Peters,  R. Peverati,  P. A. Pieniazek,  
 Y. M. Rhee,  J. Ritchie,  M. A. Rohrdanz,  E. Rosta,  N. J. Russ,  
 H. F. Schaefer III,  N. E. Schultz,  N. Shenvi,  A. C. Simmonett,  A. Sodt,  
 D. Stuck,  K. S. Thanthiriwatte,  V. Vanovschi,  Tao Wang,  A. Warshel,  
 C. F. Williams,  Q. Wu,  X. Xu,  W. Zhang

 Please cite Q-Chem as follows:
 Y. Shao et al., Mol. Phys. 113, 184-215 (2015)
 DOI: 10.1080/00268976.2014.952696

 Q-Chem 5.1.0 for Mac (Intel) OS X

 Parts of Q-Chem use Armadillo 8.300.2 (Tropical Shenanigans).
 http://arma.sourceforge.net/

 Q-Chem begins on Fri Jul 20 11:10:41 2018  

Host: 
0

     Scratch files written to /Volumes/Local_SSD/cmfp2/SAVEDIR//
Processing $rem in /Network/Servers/magrid-mac-11.lut.ac.uk/Volumes/Users_HD/MD_NFS/cmfp2/programs/QChem/Versions/QC_5.1_rc/config/preferences.
 MEM_TOTAL  10000 
The previous job contains 0 fragments, simply inherited here

Checking the input file for inconsistencies... 	...done.

--------------------------------------------------------------
User input:
--------------------------------------------------------------
$molecule
 read coord.qcin
$end

$rem
JOBTYPE                 SP
BASIS                   VDZ
THRESH                  12
n_frozen_core		FC
METHOD                  ADC(1)
ee_singlets		[0,0,0,0,0,0,0,2]
ee_triplets		[0,0,0,0,0,0,0,2]
adc_davidson_conv	4
adc_davidson_maxsubspace 21
adc_nguess_singles	9
adc_print		3
MEM_STATIC              2000
MEM_TOTAL               33000
MAKE_CUBE_FILES         false
GUI			2
state_analysis          true
print_orbitals		1000000
nto_pairs               5
molden_format           true
$end

$plots
total_density 0-1
transition_density 1-3
attachment_detachment_density 3
$end
--------------------------------------------------------------
 ----------------------------------------------------------------
             Standard Nuclear Orientation (Angstroms)
    I     Atom           X                Y                Z
 ----------------------------------------------------------------
    1      C      -0.0000000000    -0.7178510000    -0.0000000000
    2      C      -1.2448800000    -1.4070900000    -0.0000000000
    3      C      -2.4402300000    -0.7093210000    -0.0000000000
    4      C      -2.4402300000     0.7093210000    -0.0000000000
    5      C      -1.2448800000     1.4070900000    -0.0000000000
    6      C       0.0000000000     0.7178510000     0.0000000000
    7      C       1.2448800000     1.4070900000     0.0000000000
    8      C       2.4402300000     0.7093210000     0.0000000000
    9      H      -1.2438000000    -2.5047300000    -0.0000000000
   10      H      -3.3926400000    -1.2530100000    -0.0000000000
   11      H      -3.3926400000     1.2530100000    -0.0000000000
   12      H      -1.2438000000     2.5047300000    -0.0000000000
   13      H       1.2438000000     2.5047300000     0.0000000000
   14      C       2.4402300000    -0.7093210000     0.0000000000
   15      C       1.2448800000    -1.4070900000     0.0000000000
   16      H       3.3926400000     1.2530100000     0.0000000000
   17      H       3.3926400000    -1.2530100000     0.0000000000
   18      H       1.2438000000    -2.5047300000     0.0000000000
 ----------------------------------------------------------------
 Molecular Point Group                 D2h   NOp =  8
 Largest Abelian Subgroup              D2h   NOp =  8
 Nuclear Repulsion Energy =   455.7445218260 hartrees
 There are       34 alpha and       34 beta electrons
 Requested basis set is VDZ
 There are 66 shells and 106 basis functions

 Total QAlloc Memory Limit  33000 MB
 Mega-Array Size      1956 MB
 MEM_STATIC part      2000 MB
 A cutoff of  1.0D-12 yielded   2105 shell pairs
 There are      5577 function pairs
 
 -------------------------------------------------------
 OpenMP Integral Computing Module                       
 Release: version 1.0, May 2013, Q-Chem Inc. Pittsburgh 
 -------------------------------------------------------
 Integral Job Info:
 Integral job number is                      11
 Integral operator is                         1
 short-range coefficients                     0
 long-range coefficients              100000000
 Omega coefficients                           0
 if combine SR and LR in K                    0
 Integral screening is                        0
 Integral computing path is                   2
 max size of driver memory is            800000
 size of driver memory is                 45569
 size of scratch memory is              1477076
 max col of scratch BK array                289
 max len of scratch array in speh3           22
 max len of scratch index in speh4            8
 max int batch size is                      520
 min int batch size is                       52
 fixed nKL is                                52
 max L of basis functions is                  1
 order of int derivative is                   0
 number of shells is                         66
 number of basis is                         106
 number of cartesian basis is               106
 number of contracted shell pairs          2105
 number of primitive shell pairs           6724
 maxK2 (contraction) of shell pair           25
 max number of K2 of shell pair               1
 max number of CS2 of shell pair            430
 max number of PS2 of shell pair           1500
 mem total for path MDJ                  527852
 -------------------------------------------------------
 Smallest overlap matrix eigenvalue = 3.28E-04

 Scale SEOQF with 1.000000e-01/1.000000e-01/1.000000e+00

 Standard Electronic Orientation quadrupole field applied
 Nucleus-field energy     =     0.0000000152 hartrees
 Guess from superposition of atomic densities
 Warning:  Energy on first SCF cycle will be non-variational
 SAD guess density has 68.000000 electrons
 A restricted Hartree-Fock SCF calculation will be
 performed using Pulay DIIS extrapolation
 SCF converges when DIIS error is below 1.0E-08
 using 6 threads for integral computing
 -------------------------------------------------------
 OpenMP Integral computing Module                
 Release: version 1.0, May 2013, Q-Chem Inc. Pittsburgh 
 -------------------------------------------------------
 ---------------------------------------
  Cycle       Energy         DIIS Error
 ---------------------------------------
    1    -387.4750223140      1.07E-01
    2    -382.8242708506      5.99E-03
    3    -382.9070158889      1.45E-03
    4    -382.9125051027      3.77E-04
    5    -382.9127548848      1.13E-04
    6    -382.9127880120      3.15E-05
    7    -382.9127925912      1.09E-05
    8    -382.9127936125      3.49E-06
    9    -382.9127937048      1.07E-06
   10    -382.9127937104      1.57E-07
   11    -382.9127937105      1.63E-08
   12    -382.9127937105      3.33E-09 Convergence criterion met
 ---------------------------------------
 SCF time:  CPU 6.17 s  wall 1.07 s
 SCF   energy in the final basis set = -382.91279371
 Total energy in the final basis set = -382.91279371
================================================================================
|                                                                              |
|                                 A D C  M A N                                 |
|                                                                              |
 ------------------------------------------------------------------------------ 
|                                                                              |
| Components:                                                                  |
|                                                                              |
| - libvmm - 1.3-trunk                                                         |
|   Authors:                                                                   |
|   Evgeny Epifanovsky, Ilya Kaliman                                           |
|                                                                              |
| - libtensor - 2.5-trunk                                                      |
|   Authors:                                                                   |
|   Evgeny Epifanovsky, Michael Wormit, Dmitry Zuev, Sam Manzer,               |
|   Ilya Kaliman                                                               |
|                                                                              |
| - libwfa - 1.1-beta                                                          |
|   Authors:                                                                   |
|   Felix Plasser, Stefanie Baeppler, Benjamin Thomitzni, Michael Wormit       |
|                                                                              |
| - libadc - 1.1-trunk                                                         |
|   Authors:                                                                   |
|   Michael Wormit, Adrian L. Dempwolff, Philipp H. P. Harbach,                |
|   Caroline Krauter, Dirk Rehn, Matthias Schneider, Jan Wenzel                |
|                                                                              |
| - adcman - 2.6-trunk                                                         |
|   Authors:                                                                   |
|   Michael Wormit, Adrian L. Dempwolff, Philipp H. P. Harbach,                |
|   Caroline Krauter, Daniel Lefrancois, Jan-Michael Mewes, Dirk Rehn,         |
|   Matthias Schneider, Jan Wenzel, Andreas Dreuw                              |
|                                                                              |
| Authors of earlier versions of ADCMAN:                                       |
| Andreas Dreuw, Jan Hendrik Starcke, Dirk Rehn, Michael Wormit                |
|                                                                              |
================================================================================

Created directory /Volumes/Local_SSD/cmfp2/SAVEDIR/plots
  Import QC data ...  CPU 0.00 s  wall 0.00 s
 
 Alpha MOs, Restricted
 -- Occupied --                  
-11.257 -11.256 -11.250 -11.250 -11.250 -11.250 -11.249 -11.249
  1 Ag    1 B2u   1 B3u   2 Ag    1 B1g   2 B2u   2 B3u   3 Ag                 
-11.248 -11.248  -1.174  -1.106  -1.045  -1.004  -0.976  -0.851
  2 B1g   3 B2u   4 Ag    3 B3u   4 B2u   5 Ag    3 B1g   4 B3u                
 -0.835  -0.811  -0.705  -0.702  -0.684  -0.622  -0.620  -0.593
  5 B2u   6 Ag    5 B3u   4 B1g   7 Ag    6 B2u   8 Ag    6 B3u                
 -0.589  -0.565  -0.539  -0.529  -0.492  -0.480  -0.452  -0.392
  5 B1g   7 B2u   1 B1u   7 B3u   6 B1g   9 Ag    1 B2g   1 B3g                
 -0.327  -0.292
  2 B1u   1 Au                                                                 
 -- Virtual --                   
  0.082   0.116   0.172   0.182   0.199   0.200   0.237   0.241
  2 B2g   2 B3g   3 B1u  10 Ag    8 B3u   8 B2u  11 Ag    7 B1g                
  0.259   0.267   0.276   0.300   0.388   0.404   0.440   0.449
  9 B2u   2 Au    9 B3u   8 B1g   3 B3g  10 B2u  12 Ag   13 Ag                 
  0.460   0.467   0.472   0.495   0.523   0.562   0.567   0.569
 11 B2u   9 B1g  10 B3u  11 B3u  14 Ag   12 B3u  10 B1g  12 B2u                
  0.613   0.631   0.646   0.654   0.672   0.681   0.681   0.695
 15 Ag   16 Ag   13 B2u  13 B3u   4 B1u  11 B1g  14 B2u  14 B3u                
  0.710   0.728   0.732   0.737   0.757   0.782   0.795   0.844
  3 B2g  17 Ag   12 B1g   4 B3g  15 B2u   5 B1u   3 Au    5 B3g                
  0.863   0.866   0.908   0.923   0.928   0.929   0.930   0.935
  6 B1u   4 B2g  18 Ag   13 B1g  15 B3u  16 B2u   4 Au   19 Ag                 
  0.951   0.971   0.986   0.994   1.029   1.030   1.033   1.054
 17 B2u  14 B1g  16 B3u   6 B3g  18 B2u  15 B1g  17 B3u  20 Ag                 
  1.095   1.098   1.102   1.161   1.169   1.204   1.286   1.374
 19 B2u  21 Ag   16 B1g  20 B2u  18 B3u  17 B1g  21 B2u  19 B3u                
  1.376   1.390   1.510   1.534   1.548   1.606   1.784   1.831
 18 B1g  22 Ag   22 B2u  23 Ag   20 B3u  19 B1g  23 B2u  20 B1g                
 
 Beta MOs, Restricted
 -- Occupied --                  
-11.257 -11.256 -11.250 -11.250 -11.250 -11.250 -11.249 -11.249
  1 Ag    1 B2u   1 B3u   2 Ag    1 B1g   2 B2u   2 B3u   3 Ag                 
-11.248 -11.248  -1.174  -1.106  -1.045  -1.004  -0.976  -0.851
  2 B1g   3 B2u   4 Ag    3 B3u   4 B2u   5 Ag    3 B1g   4 B3u                
 -0.835  -0.811  -0.705  -0.702  -0.684  -0.622  -0.620  -0.593
  5 B2u   6 Ag    5 B3u   4 B1g   7 Ag    6 B2u   8 Ag    6 B3u                
 -0.589  -0.565  -0.539  -0.529  -0.492  -0.480  -0.452  -0.392
  5 B1g   7 B2u   1 B1u   7 B3u   6 B1g   9 Ag    1 B2g   1 B3g                
 -0.327  -0.292
  2 B1u   1 Au                                                                 
 -- Virtual --                   
  0.082   0.116   0.172   0.182   0.199   0.200   0.237   0.241
  2 B2g   2 B3g   3 B1u  10 Ag    8 B3u   8 B2u  11 Ag    7 B1g                
  0.259   0.267   0.276   0.300   0.388   0.404   0.440   0.449
  9 B2u   2 Au    9 B3u   8 B1g   3 B3g  10 B2u  12 Ag   13 Ag                 
  0.460   0.467   0.472   0.495   0.523   0.562   0.567   0.569
 11 B2u   9 B1g  10 B3u  11 B3u  14 Ag   12 B3u  10 B1g  12 B2u                
  0.613   0.631   0.646   0.654   0.672   0.681   0.681   0.695
 15 Ag   16 Ag   13 B2u  13 B3u   4 B1u  11 B1g  14 B2u  14 B3u                
  0.710   0.728   0.732   0.737   0.757   0.782   0.795   0.844
  3 B2g  17 Ag   12 B1g   4 B3g  15 B2u   5 B1u   3 Au    5 B3g                
  0.863   0.866   0.908   0.923   0.928   0.929   0.930   0.935
  6 B1u   4 B2g  18 Ag   13 B1g  15 B3u  16 B2u   4 Au   19 Ag                 
  0.951   0.971   0.986   0.994   1.029   1.030   1.033   1.054
 17 B2u  14 B1g  16 B3u   6 B3g  18 B2u  15 B1g  17 B3u  20 Ag                 
  1.095   1.098   1.102   1.161   1.169   1.204   1.286   1.374
 19 B2u  21 Ag   16 B1g  20 B2u  18 B3u  17 B1g  21 B2u  19 B3u                
  1.376   1.390   1.510   1.534   1.548   1.606   1.784   1.831
 18 B1g  22 Ag   22 B2u  23 Ag   20 B3u  19 B1g  23 B2u  20 B1g                
  Import AO data ...  CPU 0.02 s  wall 0.02 s
  Using point group: D2h
  Irreducible representations in point group: Ag B1g B2g B3g Au B1u B2u B3u
  Molecular orbitals: 
  Restricted Occupied MOs:
  Block   0:   1 ( Ag) A   2 ( Ag) A   3 ( Ag) A
                  -11.26      -11.25      -11.25
  Block   1:   1 (B1g) A   2 (B1g) A
                  -11.25      -11.25
  Block   2:   1 (B2u) A   2 (B2u) A   3 (B2u) A
                  -11.26      -11.25      -11.25
  Block   3:   1 (B3u) A   2 (B3u) A
                  -11.25      -11.25
  Block   4:   1 ( Ag) B   2 ( Ag) B   3 ( Ag) B
                  -11.26      -11.25      -11.25
  Block   5:   1 (B1g) B   2 (B1g) B
                  -11.25      -11.25
  Block   6:   1 (B2u) B   2 (B2u) B   3 (B2u) B
                  -11.26      -11.25      -11.25
  Block   7:   1 (B3u) B   2 (B3u) B
                  -11.25      -11.25
  Occupied MOs:
  Block   0:   4 ( Ag) A   5 ( Ag) A   6 ( Ag) A   7 ( Ag) A   8 ( Ag) A
                  -1.174      -1.004     -0.8107     -0.6838     -0.6204
               9 ( Ag) A
                 -0.4797
  Block   1:   3 (B1g) A   4 (B1g) A   5 (B1g) A   6 (B1g) A
                 -0.9756     -0.7016     -0.5889     -0.4923
  Block   2:   1 (B2g) A
                 -0.4522
  Block   3:   1 (B3g) A
                 -0.3916
  Block   4:   1 ( Au) A
                 -0.2921
  Block   5:   1 (B1u) A   2 (B1u) A
                 -0.5392     -0.3265
  Block   6:   4 (B2u) A   5 (B2u) A   6 (B2u) A   7 (B2u) A
                  -1.045     -0.8346     -0.6216     -0.5651
  Block   7:   3 (B3u) A   4 (B3u) A   5 (B3u) A   6 (B3u) A   7 (B3u) A
                  -1.106     -0.8515     -0.7045     -0.5932     -0.5286
  Block   8:   4 ( Ag) B   5 ( Ag) B   6 ( Ag) B   7 ( Ag) B   8 ( Ag) B
                  -1.174      -1.004     -0.8107     -0.6838     -0.6204
               9 ( Ag) B
                 -0.4797
  Block   9:   3 (B1g) B   4 (B1g) B   5 (B1g) B   6 (B1g) B
                 -0.9756     -0.7016     -0.5889     -0.4923
  Block  10:   1 (B2g) B
                 -0.4522
  Block  11:   1 (B3g) B
                 -0.3916
  Block  12:   1 ( Au) B
                 -0.2921
  Block  13:   1 (B1u) B   2 (B1u) B
                 -0.5392     -0.3265
  Block  14:   4 (B2u) B   5 (B2u) B   6 (B2u) B   7 (B2u) B
                  -1.045     -0.8346     -0.6216     -0.5651
  Block  15:   3 (B3u) B   4 (B3u) B   5 (B3u) B   6 (B3u) B   7 (B3u) B
                  -1.106     -0.8515     -0.7045     -0.5932     -0.5286
  Virtual MOs:
  Block   0:  10 ( Ag) A  11 ( Ag) A  12 ( Ag) A  13 ( Ag) A  14 ( Ag) A
                   0.182      0.2374      0.4397      0.4488      0.5225
              15 ( Ag) A  16 ( Ag) A  17 ( Ag) A  18 ( Ag) A  19 ( Ag) A
                  0.6133      0.6314      0.7283      0.9077      0.9355
              20 ( Ag) A  21 ( Ag) A  22 ( Ag) A  23 ( Ag) A
                   1.054       1.098        1.39       1.534
  Block   1:   7 (B1g) A   8 (B1g) A   9 (B1g) A  10 (B1g) A  11 (B1g) A
                  0.2413      0.3005      0.4666       0.567      0.6806
              12 (B1g) A  13 (B1g) A  14 (B1g) A  15 (B1g) A  16 (B1g) A
                  0.7317      0.9228       0.971        1.03       1.102
              17 (B1g) A  18 (B1g) A  19 (B1g) A  20 (B1g) A
                   1.204       1.376       1.606       1.831
  Block   2:   2 (B2g) A   3 (B2g) A   4 (B2g) A
                 0.08166      0.7103      0.8656
  Block   3:   2 (B3g) A   3 (B3g) A   4 (B3g) A   5 (B3g) A   6 (B3g) A
                  0.1157       0.388      0.7371      0.8442      0.9938
  Block   4:   2 ( Au) A   3 ( Au) A   4 ( Au) A
                  0.2674      0.7953      0.9302
  Block   5:   3 (B1u) A   4 (B1u) A   5 (B1u) A   6 (B1u) A
                  0.1724      0.6724      0.7822       0.863
  Block   6:   8 (B2u) A   9 (B2u) A  10 (B2u) A  11 (B2u) A  12 (B2u) A
                  0.2004       0.259      0.4037        0.46      0.5689
              13 (B2u) A  14 (B2u) A  15 (B2u) A  16 (B2u) A  17 (B2u) A
                  0.6457      0.6809      0.7568      0.9288      0.9508
              18 (B2u) A  19 (B2u) A  20 (B2u) A  21 (B2u) A  22 (B2u) A
                   1.029       1.095       1.161       1.286        1.51
              23 (B2u) A
                   1.784
  Block   7:   8 (B3u) A   9 (B3u) A  10 (B3u) A  11 (B3u) A  12 (B3u) A
                  0.1988      0.2759      0.4718      0.4948      0.5616
              13 (B3u) A  14 (B3u) A  15 (B3u) A  16 (B3u) A  17 (B3u) A
                  0.6541      0.6946      0.9277      0.9857       1.033
              18 (B3u) A  19 (B3u) A  20 (B3u) A
                   1.169       1.374       1.548
  Block   8:  10 ( Ag) B  11 ( Ag) B  12 ( Ag) B  13 ( Ag) B  14 ( Ag) B
                   0.182      0.2374      0.4397      0.4488      0.5225
              15 ( Ag) B  16 ( Ag) B  17 ( Ag) B  18 ( Ag) B  19 ( Ag) B
                  0.6133      0.6314      0.7283      0.9077      0.9355
              20 ( Ag) B  21 ( Ag) B  22 ( Ag) B  23 ( Ag) B
                   1.054       1.098        1.39       1.534
  Block   9:   7 (B1g) B   8 (B1g) B   9 (B1g) B  10 (B1g) B  11 (B1g) B
                  0.2413      0.3005      0.4666       0.567      0.6806
              12 (B1g) B  13 (B1g) B  14 (B1g) B  15 (B1g) B  16 (B1g) B
                  0.7317      0.9228       0.971        1.03       1.102
              17 (B1g) B  18 (B1g) B  19 (B1g) B  20 (B1g) B
                   1.204       1.376       1.606       1.831
  Block  10:   2 (B2g) B   3 (B2g) B   4 (B2g) B
                 0.08166      0.7103      0.8656
  Block  11:   2 (B3g) B   3 (B3g) B   4 (B3g) B   5 (B3g) B   6 (B3g) B
                  0.1157       0.388      0.7371      0.8442      0.9938
  Block  12:   2 ( Au) B   3 ( Au) B   4 ( Au) B
                  0.2674      0.7953      0.9302
  Block  13:   3 (B1u) B   4 (B1u) B   5 (B1u) B   6 (B1u) B
                  0.1724      0.6724      0.7822       0.863
  Block  14:   8 (B2u) B   9 (B2u) B  10 (B2u) B  11 (B2u) B  12 (B2u) B
                  0.2004       0.259      0.4037        0.46      0.5689
              13 (B2u) B  14 (B2u) B  15 (B2u) B  16 (B2u) B  17 (B2u) B
                  0.6457      0.6809      0.7568      0.9288      0.9508
              18 (B2u) B  19 (B2u) B  20 (B2u) B  21 (B2u) B  22 (B2u) B
                   1.029       1.095       1.161       1.286        1.51
              23 (B2u) B
                   1.784
  Block  15:   8 (B3u) B   9 (B3u) B  10 (B3u) B  11 (B3u) B  12 (B3u) B
                  0.1988      0.2759      0.4718      0.4948      0.5616
              13 (B3u) B  14 (B3u) B  15 (B3u) B  16 (B3u) B  17 (B3u) B
                  0.6541      0.6946      0.9277      0.9857       1.033
              18 (B3u) B  19 (B3u) B  20 (B3u) B
                   1.169       1.374       1.548
  Import MO data ...  CPU 0.12 s  wall 0.08 s
  Import HF data ...  CPU 3.99 s  wall 2.12 s
 
  Import 2e integrals ...  CPU 23.50 s  wall 6.56 s

--------------------------------------------------------------------------------
                                   HF Summary                                   
--------------------------------------------------------------------------------
  Energy:                                                 -382.9127937105 a.u.
  Dip. moment [a.u.]:                  [  -0.000000,   -0.000000,    0.000000]
  Total dipole [Debye]:                                               0.000000
  <r^2> [a.u.]:                        [ 868.964870,  386.204064,   49.431789]
  Total <r^2> [a.u.]:                                              1304.600724
--------------------------------------------------------------------------------
  HF properties ...  CPU 0.53 s  wall 0.28 s
  MP(1) calculation ...  CPU 2.80 s  wall 2.28 s
  Start ADC(1) ...  CPU 0.39 s  wall 0.20 s
  Starting Davidson for singlet states of irrep B3u ... 
--------------------------------------------------------------------------------
   It NVec Conv  Avg. Norm  Max. Norm  Conv. states           Remark
--------------------------------------------------------------------------------
         9    0  8.076e-02  1.574e-01  0.2000 n n             Guess.
    1   11    0  1.820e-02  3.626e-02  0.1985 n n             
    2   13    0  3.152e-03  6.283e-03  0.1985 n n             
    3   15    1  1.068e-03  2.133e-03  0.1985 y n             
    4   17    1  2.970e-04  5.937e-04  0.1985 y n             
    5   19    1  6.396e-05  1.279e-04  0.1985 y n             
    6   21    2  1.732e-05  3.463e-05  0.1985 y y             Converged.
--------------------------------------------------------------------------------
  Davidson Summary: 
 ------------------------------------------------------------
  State  0: excitation energy =   0.1985 a.u.   (converged)
  State  1: excitation energy =   0.2705 a.u.   (converged)
 ------------------------------------------------------------

  Singlet states of irrep B3u ...  CPU 3.56 s  wall 1.80 s
  TDMs ...  CPU 1.15 s  wall 0.60 s
  SDMs ...  CPU 1.06 s  wall 0.55 s
  Transition properties ...  CPU 0.30 s  wall 0.25 s
  Properties ...  CPU 0.49 s  wall 0.33 s
  Starting Davidson for triplet states of irrep B3u ... 
--------------------------------------------------------------------------------
   It NVec Conv  Avg. Norm  Max. Norm  Conv. states           Remark
--------------------------------------------------------------------------------
         9    0  3.443e-02  6.319e-02  0.1661 n n             Guess.
    1   11    0  6.735e-03  1.307e-02  0.1605 n n             
    2   13    0  1.493e-03  2.921e-03  0.1603 n n             
    3   15    0  4.150e-04  8.234e-04  0.1603 n n             
    4   17    1  1.080e-04  2.150e-04  0.1603 n y             
    5   19    2  2.519e-05  5.027e-05  0.1603 y y             Converged.
--------------------------------------------------------------------------------
  Davidson Summary: 
 ------------------------------------------------------------
  State  0: excitation energy =   0.1603 a.u.   (converged)
  State  1: excitation energy =   0.1902 a.u.   (converged)
 ------------------------------------------------------------

  Triplet states of irrep B3u ...  CPU 3.17 s  wall 1.60 s
  TDMs ...  CPU 1.16 s  wall 0.61 s
  SDMs ...  CPU 1.05 s  wall 0.55 s
  Transition properties ...  CPU 0.06 s  wall 0.11 s
  Properties ...  CPU 0.49 s  wall 0.33 s

--------------------------------------------------------------------------------
                   State-averaged natural transition orbitals
--------------------------------------------------------------------------------
--------------------------------------------------------------------------------
  SA-NTO decomposition ...  CPU 0.01 s  wall 0.01 s

--------------------------------------------------------------------------------
                             Excited State Summary
--------------------------------------------------------------------------------
--------------------------------------------------------------------------------

  Excited state 1 (triplet, B3u)                                   [converged]
  ----------------------------------------------------------------------------
  Term symbol:  1 (3) B3u                                   R^2 =  5.02713e-05

  Total energy:                                           -382.7525234649 a.u.
  Excitation energy:                                               4.361175 eV

  Dip. moment [a.u.]:                  [  -0.000000,   -0.000000,    0.000000]
  Total dipole [Debye]:                                               0.000000
  <r^2> [a.u.]:                        [ 869.174599,  386.968028,   49.449144]
  Total <r^2> [a.u.]:                                              1305.591771

  Important amplitudes:
       occ i       occ j       vir a        vir b           v   
    -------------------------------------------------------------
     2 (B1u) A                2 (B2g) A                  -0.4813
     1 (Au ) A                2 (B3g) A                  -0.4629
     1 (B2g) A                3 (B1u) A                  -0.1431
     1 (B3g) A                2 (Au ) A                   0.1311
     1 (B1u) A                2 (B2g) A                   0.0903
     1 (Au ) A                3 (B3g) A                  -0.0601
     1 (Au ) A                5 (B3g) A                   0.0308
     1 (B2g) A                5 (B1u) A                   0.0301
     2 (B1u) A                4 (B2g) A                  -0.0205
     2 (B1u) A                3 (B2g) A                  -0.0182
     1 (B3g) A                4 (Au ) A                   0.0172
     1 (B1u) A                4 (B2g) A                   0.0131
     1 (Au ) A                4 (B3g) A                   0.0115
     3 (B1g) A               13 (B2u) A                   0.0098
     5 (B2u) A               11 (B1g) A                  -0.0088
     1 (B3g) A                3 (Au ) A                  -0.0074
     1 (B1u) A                3 (B2g) A                   0.0074
     5 (Ag ) A               14 (B3u) A                   0.0068
     1 (B2g) A                6 (B1u) A                  -0.0068
     3 (B3u) A               13 (Ag ) A                  -0.0068
     4 (B1g) A                9 (B2u) A                   0.0064
     4 (B2u) A               11 (B1g) A                   0.0063
     1 (B2g) A                4 (B1u) A                   0.0059
     4 (B1g) A               13 (B2u) A                  -0.0054
     3 (B1g) A                9 (B2u) A                  -0.0053
     6 (B3u) A               13 (Ag ) A                  -0.0052
     5 (Ag ) A               11 (B3u) A                  -0.0051
     3 (B1g) A               11 (B2u) A                  -0.0049
     7 (Ag ) A               11 (B3u) A                  -0.0045
     7 (B2u) A                7 (B1g) A                   0.0043
     3 (B3u) A               12 (Ag ) A                  -0.0043
     4 (B3u) A               10 (Ag ) A                  -0.0041
     5 (B2u) A                8 (B1g) A                   0.0040
     5 (B2u) A                7 (B1g) A                   0.0040
     5 (B2u) A               10 (B1g) A                  -0.0040
     3 (B3u) A               17 (Ag ) A                   0.0040
     1 (Au ) A                6 (B3g) A                   0.0039
     6 (B3u) A               12 (Ag ) A                  -0.0039
     4 (Ag ) A               11 (B3u) A                   0.0038
     5 (B2u) A                9 (B1g) A                  -0.0037
    -------------------------------------------------------------

  Density matrix analysis:
  ------------------------
  NOs
    Occupation of frontier NOs:
       0.0005   0.0351   0.0429   0.4380   0.4814   1.5186   1.5620   1.9571   1.9649   1.9995
    Number of electrons: 68.000000
    Number of unpaired electrons: n_u =  2.00000, n_u,nl =  2.02869
    NO participation ratio (PR_NO):  4.687388
  
  NDOs
    Leading detachment eigenvalues:
      -0.4814  -0.4380  -0.0429  -0.0351  -0.0005
    Leading attachment eigenvalues:
       0.4814   0.4380   0.0429   0.0351   0.0005
    Number of detached / attached electrons: p_D =  1.0000, p_A =  1.0000
    Number of involved orbitals: PR_D =  2.343694, PR_A =  2.343694
  
  Mulliken Population Analysis
  Atom      Charge (e)              h+              e-           Del q
  --------------------------------------------------------------------
   1 C       -0.063698        0.062504       -0.062375        0.000129
   2 C       -0.104556        0.086252       -0.094168       -0.007916
   3 C       -0.113119        0.132398       -0.124476        0.007921
   4 C       -0.113119        0.132398       -0.124476        0.007921
   5 C       -0.104556        0.086252       -0.094168       -0.007916
   6 C       -0.063698        0.062504       -0.062375        0.000129
   7 C       -0.104556        0.086252       -0.094168       -0.007916
   8 C       -0.113119        0.132398       -0.124476        0.007921
   9 H        0.122205        0.000012       -0.000024       -0.000012
  10 H        0.127319        0.000087       -0.000144       -0.000057
  11 H        0.127319        0.000087       -0.000144       -0.000057
  12 H        0.122205        0.000012       -0.000024       -0.000012
  13 H        0.122205        0.000012       -0.000024       -0.000012
  14 C       -0.113119        0.132398       -0.124476        0.007921
  15 C       -0.104556        0.086252       -0.094168       -0.007916
  16 H        0.127319        0.000087       -0.000144       -0.000057
  17 H        0.127319        0.000087       -0.000144       -0.000057
  18 H        0.122205        0.000012       -0.000024       -0.000012
  --------------------------------------------------------------------
  Sum:        0.000000        1.000000       -1.000000        0.000000
  
  Exciton analysis of the difference density matrix
    <r_h> [Ang]:                  [ -0.000000,   0.000000,  -0.000000]
    <r_e> [Ang]:                  [  0.000000,  -0.000000,  -0.000000]
    |<r_e - r_h>| [Ang]:            0.000000
    Hole size [Ang]:                2.433836
      Cartesian components [Ang]: [  1.997945,   1.118569,   0.824971]
    Electron size [Ang]:            2.490196
      Cartesian components [Ang]: [  2.012588,   1.210425,   0.827911]

  Transition density matrix analysis:
  -----------------------------------
  NTOs
    Leading SVs and ENEs:
         0.4814   0.4380   0.0429   0.0351   0.0011   0.0007   0.0005   0.0005   0.0005   0.0004
  E(h)  -0.3338  -0.2921  -0.4522  -0.3916   0.1979   0.3111  -0.8705   0.3475  -0.8721   0.3235
  E(e)   0.0843   0.1237   0.2004   0.2802  -0.4118  -0.2921   0.5551  -0.4522   0.5919  -0.3916
  
    Sum of SVs (Omega):               1.003013
    Participation ratio (PR_NTO):     2.357826
    Entanglement entropy (S_HE):      1.457464
    Nr of entangled states (Z_HE):    2.746253
    Renormalized S_HE/Z_HE:  1.457427 /  2.746181
  
  Atomic CT numbers
    omega =     1.0030
  
  Exciton analysis of the transition density matrix
    <r_h> [Ang]:                        [ -0.000000,  -0.000000,  -0.000000]
    <r_e> [Ang]:                        [  0.000000,  -0.000000,  -0.000000]
    |<r_e - r_h>| [Ang]:                  0.000000
    Hole size [Ang]:                      2.434078
      Cartesian components [Ang]:       [  1.998216,   1.118798,   0.824719]
    Electron size [Ang]:                  2.490268
      Cartesian components [Ang]:       [  2.012822,   1.210234,   0.827838]
    RMS electron-hole separation [Ang]:   3.019895
      Cartesian components [Ang]:       [  2.282410,   1.604270,   1.156154]
    Covariance(r_h, r_e) [Ang^2]:         1.503203
    Correlation coefficient:              0.247992
    Center-of-mass size [Ang]:            1.945031
      Cartesian components [Ang]:       [  1.649185,   0.845439,   0.590395]

  Decomposition into state-averaged NTOs
    H- 1 -> L+ 0:  0.4810 ( 46.3%)
    H- 0 -> L+ 1:  0.4624 ( 42.8%)
    H- 2 -> L+ 2:  0.1462 (  4.3%)
    H- 3 -> L+ 3: -0.1323 (  3.5%)
    H- 4 -> L+ 0:  0.0948 (  1.8%)
    H- 0 -> L+ 4:  0.0718 (  1.0%)
                   omega = 100.3%
  ----------------------------------------------------------------------------


  Excited state 2 (triplet, B3u)                                   [converged]
  ----------------------------------------------------------------------------
  Term symbol:  2 (3) B3u                                   R^2 =  3.43122e-06

  Total energy:                                           -382.7225621962 a.u.
  Excitation energy:                                               5.176463 eV

  Dip. moment [a.u.]:                  [  -0.000000,   -0.000000,    0.000000]
  Total dipole [Debye]:                                               0.000000
  <r^2> [a.u.]:                        [ 870.187323,  386.755032,   49.590981]
  Total <r^2> [a.u.]:                                              1306.533337

  Important amplitudes:
       occ i       occ j       vir a        vir b           v   
    -------------------------------------------------------------
     1 (Au ) A                2 (B3g) A                   0.4990
     2 (B1u) A                2 (B2g) A                  -0.4837
     1 (B3g) A                2 (Au ) A                  -0.0867
     1 (B2g) A                3 (B1u) A                  -0.0793
     1 (B1u) A                2 (B2g) A                  -0.0410
     1 (Au ) A                3 (B3g) A                  -0.0330
     1 (Au ) A                5 (B3g) A                  -0.0092
     2 (B1u) A                4 (B2g) A                  -0.0086
     5 (Ag ) A               14 (B3u) A                   0.0045
     1 (B3g) A                4 (Au ) A                  -0.0044
     1 (B2g) A                5 (B1u) A                   0.0043
     1 (B1u) A                4 (B2g) A                  -0.0034
     3 (B1g) A               15 (B2u) A                   0.0034
     1 (B2g) A                6 (B1u) A                  -0.0032
     5 (B2u) A               10 (B1g) A                  -0.0031
     1 (Au ) A                4 (B3g) A                   0.0030
     4 (B3u) A               15 (Ag ) A                   0.0030
     3 (B1g) A               14 (B2u) A                   0.0028
     4 (B2u) A               11 (B1g) A                  -0.0028
     3 (B1g) A               13 (B2u) A                  -0.0027
     4 (B1g) A               12 (B2u) A                  -0.0025
     1 (B3g) A                3 (Au ) A                   0.0024
     5 (B1g) A               10 (B2u) A                  -0.0024
     3 (B3u) A               17 (Ag ) A                   0.0023
     6 (B1g) A               11 (B2u) A                   0.0021
     6 (Ag ) A               12 (B3u) A                  -0.0020
     5 (Ag ) A               11 (B3u) A                  -0.0020
     6 (B3u) A               12 (Ag ) A                  -0.0020
     7 (Ag ) A               10 (B3u) A                   0.0020
     6 (B1g) A               12 (B2u) A                  -0.0019
     4 (B2u) A               19 (B1g) A                   0.0019
     3 (B1g) A               10 (B2u) A                  -0.0018
     4 (B3u) A               12 (Ag ) A                  -0.0018
     5 (B2u) A               11 (B1g) A                   0.0018
     6 (B3u) A               14 (Ag ) A                   0.0017
     7 (B2u) A                9 (B1g) A                  -0.0017
     7 (B3u) A               13 (Ag ) A                   0.0016
     3 (B1g) A               11 (B2u) A                   0.0016
     5 (B1g) A               11 (B2u) A                   0.0016
     8 (Ag ) A               10 (B3u) A                  -0.0016
    -------------------------------------------------------------

  Density matrix analysis:
  ------------------------
  NOs
    Occupation of frontier NOs:
       0.0001   0.0126   0.0151   0.4715   0.5003   1.4997   1.5285   1.9849   1.9874   1.9999
    Number of electrons: 68.000000
    Number of unpaired electrons: n_u =  2.00000, n_u,nl =  2.16780
    NO participation ratio (PR_NO):  4.228135
  
  NDOs
    Leading detachment eigenvalues:
      -0.5003  -0.4715  -0.0151  -0.0126  -0.0001
    Leading attachment eigenvalues:
       0.5003   0.4715   0.0151   0.0126   0.0001
    Number of detached / attached electrons: p_D =  1.0000, p_A =  1.0000
    Number of involved orbitals: PR_D =  2.114067, PR_A =  2.114067
  
  Mulliken Population Analysis
  Atom      Charge (e)              h+              e-           Del q
  --------------------------------------------------------------------
   1 C       -0.063040        0.111341       -0.110553        0.000788
   2 C       -0.091708        0.089813       -0.084882        0.004932
   3 C       -0.126361        0.104512       -0.109833       -0.005320
   4 C       -0.126361        0.104512       -0.109833       -0.005320
   5 C       -0.091708        0.089813       -0.084882        0.004932
   6 C       -0.063040        0.111341       -0.110553        0.000788
   7 C       -0.091708        0.089813       -0.084882        0.004932
   8 C       -0.126361        0.104512       -0.109833       -0.005320
   9 H        0.122215        0.000002       -0.000004       -0.000002
  10 H        0.127373        0.000002       -0.000005       -0.000003
  11 H        0.127373        0.000002       -0.000005       -0.000003
  12 H        0.122215        0.000002       -0.000004       -0.000002
  13 H        0.122215        0.000002       -0.000004       -0.000002
  14 C       -0.126361        0.104512       -0.109833       -0.005320
  15 C       -0.091708        0.089813       -0.084882        0.004932
  16 H        0.127373        0.000002       -0.000005       -0.000003
  17 H        0.127373        0.000002       -0.000005       -0.000003
  18 H        0.122215        0.000002       -0.000004       -0.000002
  --------------------------------------------------------------------
  Sum:        0.000000        1.000000       -1.000000        0.000000
  
  Exciton analysis of the difference density matrix
    <r_h> [Ang]:                  [ -0.000000,   0.000000,  -0.000000]
    <r_e> [Ang]:                  [  0.000000,  -0.000000,  -0.000000]
    |<r_e - r_h>| [Ang]:            0.000000
    Hole size [Ang]:                2.308256
      Cartesian components [Ang]: [  1.834455,   1.132787,   0.824384]
    Electron size [Ang]:            2.422649
      Cartesian components [Ang]: [  1.925500,   1.198955,   0.850992]

  Transition density matrix analysis:
  -----------------------------------
  NTOs
    Leading SVs and ENEs:
         0.5003   0.4715   0.0151   0.0126   0.0021   0.0020   0.0003   0.0003   0.0001   0.0001
  E(h)  -0.2921  -0.3280  -0.3916  -0.4522   0.0847   0.1236   0.2727   0.1790  -0.8687  -0.9662
  E(e)   0.1171   0.0819   0.2695   0.1753  -0.3308  -0.2921  -0.3916  -0.4522   0.6256   0.6758
  
    Sum of SVs (Omega):               1.004739
    Participation ratio (PR_NTO):     2.134113
    Entanglement entropy (S_HE):      1.233624
    Nr of entangled states (Z_HE):    2.351570
    Renormalized S_HE/Z_HE:  1.234626 /  2.353204
  
  Atomic CT numbers
    omega =     1.0047
  
  Exciton analysis of the transition density matrix
    <r_h> [Ang]:                        [ -0.000000,  -0.000000,  -0.000000]
    <r_e> [Ang]:                        [  0.000000,  -0.000000,   0.000000]
    |<r_e - r_h>| [Ang]:                  0.000000
    Hole size [Ang]:                      2.308599
      Cartesian components [Ang]:       [  1.834662,   1.133136,   0.824407]
    Electron size [Ang]:                  2.421989
      Cartesian components [Ang]:       [  1.924921,   1.198654,   0.850846]
    RMS electron-hole separation [Ang]:   3.050469
      Cartesian components [Ang]:       [  2.322930,   1.589797,   1.175543]
    Covariance(r_h, r_e) [Ang^2]:         0.945151
    Correlation coefficient:              0.169036
    Center-of-mass size [Ang]:            1.808726
      Cartesian components [Ang]:       [  1.478733,   0.853534,   0.596924]

  Decomposition into state-averaged NTOs
    H- 0 -> L+ 1: -0.4995 ( 49.9%)
    H- 1 -> L+ 0:  0.4841 ( 46.9%)
    H- 3 -> L+ 3:  0.0868 (  1.5%)
    H- 2 -> L+ 2:  0.0791 (  1.2%)
                   omega = 100.5%
  ----------------------------------------------------------------------------


  Excited state 3 (singlet, B3u)                                   [converged]
  ----------------------------------------------------------------------------
  Term symbol:  1 (1) B3u                                   R^2 =  5.71351e-07

  Total energy:                                           -382.7143001055 a.u.
  Excitation energy:                                               5.401286 eV

  Osc. strength:                                                      0.000023
  Trans. dip. moment [a.u.]:           [   0.013101,    0.000000,   -0.000000]
  <i|r^2|0> [a.u.]:                    [  -0.000000,    0.000000,    0.000000]

  Dip. moment [a.u.]:                  [  -0.000000,   -0.000000,    0.000000]
  Total dipole [Debye]:                                               0.000000
  <r^2> [a.u.]:                        [ 870.006331,  386.835535,   49.563139]
  Total <r^2> [a.u.]:                                              1306.405005

  Important amplitudes:
       occ i       occ j       vir a        vir b           v   
    -------------------------------------------------------------
     1 (Au ) A                2 (B3g) A                  -0.4930
     2 (B1u) A                2 (B2g) A                   0.4920
     1 (B3g) A                2 (Au ) A                   0.0772
     1 (B2g) A                3 (B1u) A                   0.0752
     1 (B1u) A                2 (B2g) A                   0.0361
     1 (Au ) A                3 (B3g) A                   0.0322
     2 (B1u) A                4 (B2g) A                   0.0117
     1 (Au ) A                5 (B3g) A                   0.0106
     1 (B2g) A                5 (B1u) A                  -0.0061
     5 (B2u) A                9 (B1g) A                  -0.0057
     6 (Ag ) A               10 (B3u) A                   0.0054
     1 (B2g) A                6 (B1u) A                   0.0054
     1 (Au ) A                4 (B3g) A                  -0.0053
     1 (B3g) A                4 (Au ) A                   0.0048
     3 (B1g) A               10 (B2u) A                   0.0044
     5 (Ag ) A               14 (B3u) A                  -0.0044
     4 (B3u) A               12 (Ag ) A                   0.0043
     6 (B3u) A               14 (Ag ) A                  -0.0041
     1 (Au ) A                6 (B3g) A                  -0.0040
     3 (B1g) A               15 (B2u) A                  -0.0039
     5 (Ag ) A               11 (B3u) A                   0.0038
     1 (B3g) A                3 (Au ) A                  -0.0038
     6 (B1g) A               12 (B2u) A                   0.0037
     4 (B1g) A               11 (B2u) A                  -0.0037
     6 (B2u) A               12 (B1g) A                   0.0036
     4 (B3u) A               15 (Ag ) A                  -0.0031
     1 (B1u) A                4 (B2g) A                   0.0030
     6 (B3u) A               10 (Ag ) A                   0.0030
     7 (Ag ) A                8 (B3u) A                   0.0029
     4 (B1g) A               15 (B2u) A                  -0.0028
     3 (B1g) A               14 (B2u) A                  -0.0028
     7 (Ag ) A               10 (B3u) A                  -0.0028
     8 (Ag ) A               13 (B3u) A                   0.0027
     7 (B3u) A               10 (Ag ) A                   0.0027
     7 (B3u) A               13 (Ag ) A                   0.0027
     4 (B2u) A               11 (B1g) A                   0.0026
     7 (Ag ) A               11 (B3u) A                  -0.0026
     5 (B1g) A               10 (B2u) A                  -0.0024
     3 (B3u) A               16 (Ag ) A                  -0.0024
     5 (B1g) A                8 (B2u) A                  -0.0023
    -------------------------------------------------------------

  Density matrix analysis:
  ------------------------
  NOs
    Occupation of frontier NOs:
       0.0001   0.0115   0.0120   0.4870   0.4885   1.5115   1.5130   1.9880   1.9885   1.9999
    Number of electrons: 68.000000
    Number of unpaired electrons: n_u =  2.00000, n_u,nl =  2.17854
    NO participation ratio (PR_NO):  4.200575
  
  NDOs
    Leading detachment eigenvalues:
      -0.4885  -0.4870  -0.0120  -0.0115  -0.0001
    Leading attachment eigenvalues:
       0.4885   0.4870   0.0120   0.0115   0.0001
    Number of detached / attached electrons: p_D =  1.0000, p_A =  1.0000
    Number of involved orbitals: PR_D =  2.100288, PR_A =  2.100288
  
  Mulliken Population Analysis
  Atom      Charge (e)              h+              e-           Del q
  --------------------------------------------------------------------
   1 C       -0.058742        0.112420       -0.107335        0.005085
   2 C       -0.096691        0.087170       -0.087222       -0.000051
   3 C       -0.123543        0.106583       -0.109086       -0.002503
   4 C       -0.123543        0.106583       -0.109086       -0.002503
   5 C       -0.096691        0.087170       -0.087222       -0.000051
   6 C       -0.058742        0.112420       -0.107335        0.005085
   7 C       -0.096691        0.087170       -0.087222       -0.000051
   8 C       -0.123543        0.106583       -0.109086       -0.002503
   9 H        0.122220        0.000015       -0.000012        0.000003
  10 H        0.127385        0.000021       -0.000012        0.000009
  11 H        0.127385        0.000021       -0.000012        0.000009
  12 H        0.122220        0.000015       -0.000012        0.000003
  13 H        0.122220        0.000015       -0.000012        0.000003
  14 C       -0.123543        0.106583       -0.109086       -0.002503
  15 C       -0.096691        0.087170       -0.087222       -0.000051
  16 H        0.127385        0.000021       -0.000012        0.000009
  17 H        0.127385        0.000021       -0.000012        0.000009
  18 H        0.122220        0.000015       -0.000012        0.000003
  --------------------------------------------------------------------
  Sum:        0.000000        1.000000       -1.000000        0.000000
  
  Exciton analysis of the difference density matrix
    <r_h> [Ang]:                  [ -0.000000,  -0.000000,  -0.000000]
    <r_e> [Ang]:                  [  0.000000,  -0.000000,  -0.000000]
    |<r_e - r_h>| [Ang]:            0.000000
    Hole size [Ang]:                2.312283
      Cartesian components [Ang]: [  1.844646,   1.124582,   0.824165]
    Electron size [Ang]:            2.419071
      Cartesian components [Ang]: [  1.922071,   1.200631,   0.846186]

  Transition density matrix analysis:
  -----------------------------------
  NTOs
    Leading SVs and ENEs:
         0.4885   0.4870   0.0120   0.0115   0.0015   0.0015   0.0002   0.0002   0.0001   0.0001
  E(h)  -0.2921  -0.3276  -0.3916  -0.4522   0.1314   0.0928   0.2857   0.2136  -0.8775  -0.9599
  E(e)   0.1173   0.0821   0.2711   0.1798  -0.2921  -0.3300  -0.3916  -0.4522   0.5189   0.5730
  
    Sum of SVs (Omega):               1.003555
    Participation ratio (PR_NTO):     2.115228
    Entanglement entropy (S_HE):      1.210619
    Nr of entangled states (Z_HE):    2.314370
    Renormalized S_HE/Z_HE:  1.211451 /  2.315704
  
  Atomic CT numbers
    omega =     1.0036
  
  Exciton analysis of the transition density matrix
    <r_h> [Ang]:                        [ -0.000000,  -0.000000,  -0.000000]
    <r_e> [Ang]:                        [  0.000000,  -0.000000,   0.000000]
    |<r_e - r_h>| [Ang]:                  0.000000
    Hole size [Ang]:                      2.312397
      Cartesian components [Ang]:       [  1.844726,   1.124793,   0.824019]
    Electron size [Ang]:                  2.418653
      Cartesian components [Ang]:       [  1.921722,   1.200442,   0.846051]
    RMS electron-hole separation [Ang]:   3.078938
      Cartesian components [Ang]:       [  2.359324,   1.594248,   1.171248]
    Covariance(r_h, r_e) [Ang^2]:         0.858602
    Correlation coefficient:              0.153517
    Center-of-mass size [Ang]:            1.796821
      Cartesian components [Ang]:       [  1.468473,   0.847174,   0.595357]

  Decomposition into state-averaged NTOs
    H- 0 -> L+ 1:  0.4936 ( 48.7%)
    H- 1 -> L+ 0: -0.4924 ( 48.5%)
    H- 3 -> L+ 3: -0.0774 (  1.2%)
    H- 2 -> L+ 2: -0.0755 (  1.1%)
                   omega = 100.4%
  ----------------------------------------------------------------------------


  Excited state 4 (singlet, B3u)                                   [converged]
  ----------------------------------------------------------------------------
  Term symbol:  2 (1) B3u                                   R^2 =  3.46258e-05

  Total energy:                                           -382.6423041122 a.u.
  Excitation energy:                                               7.360396 eV

  Osc. strength:                                                      1.723737
  Trans. dip. moment [a.u.]:           [   3.091760,   -0.000000,    0.000000]
  <i|r^2|0> [a.u.]:                    [   0.000000,    0.000000,    0.000000]

  Dip. moment [a.u.]:                  [  -0.000000,   -0.000000,   -0.000000]
  Total dipole [Debye]:                                               0.000000
  <r^2> [a.u.]:                        [ 870.235322,  386.998895,   49.644133]
  Total <r^2> [a.u.]:                                              1306.878351

  Important amplitudes:
       occ i       occ j       vir a        vir b           v   
    -------------------------------------------------------------
     1 (Au ) A                2 (B3g) A                  -0.4858
     2 (B1u) A                2 (B2g) A                  -0.4849
     6 (B1g) A               11 (B2u) A                  -0.0443
     6 (B3u) A               13 (Ag ) A                   0.0433
     1 (B2g) A                3 (B1u) A                  -0.0406
     7 (B3u) A               11 (Ag ) A                  -0.0385
     1 (B3g) A                2 (Au ) A                   0.0375
     7 (B2u) A                7 (B1g) A                  -0.0344
     9 (Ag ) A               10 (B3u) A                   0.0329
     4 (B1g) A                9 (B2u) A                  -0.0321
     5 (B1g) A               10 (B2u) A                  -0.0312
     1 (B1u) A                2 (B2g) A                  -0.0296
     5 (B1g) A                8 (B2u) A                   0.0294
     5 (B3u) A               10 (Ag ) A                   0.0282
     7 (Ag ) A                8 (B3u) A                  -0.0272
     1 (Au ) A                3 (B3g) A                   0.0265
     7 (B3u) A               12 (Ag ) A                   0.0254
     6 (B1g) A                9 (B2u) A                   0.0213
     8 (Ag ) A                8 (B3u) A                  -0.0212
     9 (Ag ) A               12 (B3u) A                  -0.0207
     8 (Ag ) A                9 (B3u) A                  -0.0192
     7 (Ag ) A               11 (B3u) A                   0.0190
     6 (B3u) A               12 (Ag ) A                   0.0189
     6 (B2u) A                9 (B1g) A                  -0.0185
     6 (B1g) A               12 (B2u) A                  -0.0180
     7 (B2u) A                8 (B1g) A                  -0.0170
     6 (B3u) A               16 (Ag ) A                  -0.0167
     7 (B3u) A               14 (Ag ) A                   0.0165
     7 (Ag ) A               17 (B3u) A                   0.0152
     4 (B3u) A               10 (Ag ) A                   0.0146
     9 (Ag ) A               13 (B3u) A                   0.0142
     7 (B3u) A               13 (Ag ) A                  -0.0140
     6 (B2u) A                8 (B1g) A                   0.0139
     5 (B2u) A                7 (B1g) A                  -0.0137
     7 (B2u) A               13 (B1g) A                  -0.0127
     4 (B1g) A               11 (B2u) A                  -0.0127
     9 (Ag ) A                8 (B3u) A                   0.0123
     7 (B2u) A               16 (B1g) A                  -0.0123
     6 (B1g) A               13 (B2u) A                   0.0121
     2 (B1u) A                3 (B2g) A                   0.0119
    -------------------------------------------------------------

  Density matrix analysis:
  ------------------------
  NOs
    Occupation of frontier NOs:
       0.0059   0.0065   0.0071   0.4724   0.4736   1.5264   1.5276   1.9929   1.9935   1.9941
    Number of electrons: 68.000000
    Number of unpaired electrons: n_u =  2.00000, n_u,nl =  2.08883
    NO participation ratio (PR_NO):  4.466698
  
  NDOs
    Leading detachment eigenvalues:
      -0.4736  -0.4724  -0.0071  -0.0065  -0.0059
    Leading attachment eigenvalues:
       0.4736   0.4724   0.0071   0.0065   0.0059
    Number of detached / attached electrons: p_D =  1.0000, p_A =  1.0000
    Number of involved orbitals: PR_D =  2.233349, PR_A =  2.233349
  
  Mulliken Population Analysis
  Atom      Charge (e)              h+              e-           Del q
  --------------------------------------------------------------------
   1 C       -0.057808        0.108402       -0.102383        0.006019
   2 C       -0.097781        0.085730       -0.086872       -0.001142
   3 C       -0.121061        0.107121       -0.107141       -0.000021
   4 C       -0.121061        0.107121       -0.107141       -0.000021
   5 C       -0.097781        0.085730       -0.086872       -0.001142
   6 C       -0.057808        0.108402       -0.102383        0.006019
   7 C       -0.097781        0.085730       -0.086872       -0.001142
   8 C       -0.121061        0.107121       -0.107141       -0.000021
   9 H        0.122107        0.001079       -0.001189       -0.000110
  10 H        0.125639        0.001870       -0.003607       -0.001737
  11 H        0.125639        0.001870       -0.003607       -0.001737
  12 H        0.122107        0.001079       -0.001189       -0.000110
  13 H        0.122107        0.001079       -0.001189       -0.000110
  14 C       -0.121061        0.107121       -0.107141       -0.000021
  15 C       -0.097781        0.085730       -0.086872       -0.001142
  16 H        0.125639        0.001870       -0.003607       -0.001737
  17 H        0.125639        0.001870       -0.003607       -0.001737
  18 H        0.122107        0.001079       -0.001189       -0.000110
  --------------------------------------------------------------------
  Sum:        0.000000        1.000000       -1.000000       -0.000000
  
  Exciton analysis of the difference density matrix
    <r_h> [Ang]:                  [ -0.000000,  -0.000000,  -0.000000]
    <r_e> [Ang]:                  [  0.000000,   0.000000,   0.000000]
    |<r_e - r_h>| [Ang]:            0.000000
    Hole size [Ang]:                2.335890
      Cartesian components [Ang]: [  1.873174,   1.137055,   0.809140]
    Electron size [Ang]:            2.468640
      Cartesian components [Ang]: [  1.965844,   1.231044,   0.845086]

  Transition density matrix analysis:
  -----------------------------------
  NTOs
    Leading SVs and ENEs:
         0.4736   0.4724   0.0071   0.0065   0.0060   0.0059   0.0059   0.0045   0.0044   0.0043
  E(h)  -0.2921  -0.3273  -0.4934  -0.5733   0.0881  -0.5566   0.1224  -0.5868  -0.6043  -0.5069
  E(e)   0.1167   0.0822   0.5279   0.4534  -0.3267   0.4370  -0.2921   0.3846   0.3686   0.4944
  
    Sum of SVs (Omega):               1.017953
    Participation ratio (PR_NTO):     2.313881
    Entanglement entropy (S_HE):      1.607522
    Nr of entangled states (Z_HE):    3.047280
    Renormalized S_HE/Z_HE:  1.604842 /  3.041625
  
  Atomic CT numbers
    omega =     1.0180
  
  Exciton analysis of the transition density matrix
    <r_h> [Ang]:                        [  0.000000,  -0.000000,  -0.000000]
    <r_e> [Ang]:                        [  0.000000,   0.000000,   0.000000]
    |<r_e - r_h>| [Ang]:                  0.000000
    Hole size [Ang]:                      2.339330
      Cartesian components [Ang]:       [  1.876191,   1.139860,   0.808141]
    Electron size [Ang]:                  2.467702
      Cartesian components [Ang]:       [  1.966080,   1.230224,   0.842990]
    RMS electron-hole separation [Ang]:   3.239941
      Cartesian components [Ang]:       [  2.599985,   1.546776,   1.159648]
    Covariance(r_h, r_e) [Ang^2]:         0.532399
    Correlation coefficient:              0.092226
    Center-of-mass size [Ang]:            1.776712
      Cartesian components [Ang]:       [  1.415204,   0.899020,   0.587934]

  Decomposition into state-averaged NTOs
    H- 0 -> L+ 1:  0.4862 ( 47.3%)
    H- 1 -> L+ 0:  0.4851 ( 47.1%)
                   omega = 101.8%
  ----------------------------------------------------------------------------


--------------------------------------------------------------------------------
  Printing results ...  CPU 0.05 s  wall 0.05 s
  Printing results (es2es) ...  CPU 0.00 s  wall 0.00 s
  Time of ADC calculation:  CPU 43.91 s  wall 18.33 s
--------------------------------------------------------------------------------
  libtensor timings
  -----------------
Execution of addition_schedule<N, Traits>: 
Calls:        563, Wall:     0.41 s
Execution of btod_add<N>: 
Calls:         30, Wall:     0.15 s
Execution of btod_add<N>::make_schedule: 
Calls:         30, Wall:     0.00 s
Execution of btod_contract2<N, M, K>: 
Calls:       1852, Wall:    10.99 s
Execution of btod_contract2<N, M, K>::make_schedule: 
Calls:        927, Wall:     0.77 s
Execution of btod_copy<N>: 
Calls:        608, Wall:     1.01 s
Execution of btod_copy<N>::make_schedule: 
Calls:        608, Wall:     0.01 s
Execution of btod_diag<N, M>: 
Calls:          6, Wall:     0.05 s
Execution of btod_dirsum<N, M>: 
Calls:       2146, Wall:     0.47 s
Execution of btod_dirsum<N, M>::make_schedule: 
Calls:          2, Wall:     0.05 s
Execution of btod_dotprod<N>: 
Calls:       1579, Wall:     0.72 s
Execution of btod_dotprod<N>::make_schedule: 
Calls:        864, Wall:     0.01 s
Execution of btod_mult1<N>: 
Calls:        220, Wall:     0.03 s
Execution of btod_mult1<N>::make_schedule: 
Calls:         22, Wall:     0.00 s
Execution of btod_mult<N>: 
Calls:          1, Wall:     0.06 s
Execution of btod_scale<N>: 
Calls:         40, Wall:     0.00 s
Execution of btod_set<N>: 
Calls:        126, Wall:     0.01 s
Execution of btod_symmetrize2<N>: 
Calls:         49, Wall:     1.18 s
Execution of btod_symmetrize2<N>::make_schedule: 
Calls:         49, Wall:     1.95 s
Execution of dense_tensor<N, T, Alloc>::lock_ro: 
Calls:     188912, Wall:     8.96 s
Execution of dense_tensor<N, T, Alloc>::lock_rw: 
Calls:     114322, Wall:     4.29 s
Execution of er_merge<N, M>: 
Calls:       2907, Wall:     0.00 s
Execution of er_optimize<N>: 
Calls:       4459, Wall:     0.01 s
Execution of er_reduce<N, M>: 
Calls:        268, Wall:   108.40 s
Execution of orbit<N, T>: 
Calls:     477267, Wall:     0.79 s
Execution of orbit_list<N, T>: 
Calls:        102, Wall:     0.08 s
Execution of short_orbit<N, T>: 
Calls:     443879, Wall:     2.16 s
Execution of tod_btconv<N>: 
Calls:         12, Wall:     0.00 s
Execution of tod_contract2<N, M, K>: 
Calls:       7552, Wall:    10.69 s
Execution of tod_contract2<N, M, K>::align: 
Calls:       7552, Wall:     0.02 s
Execution of tod_contract2<N, M, K>::kern_dmul2_i_ip_p: 
Calls:       4792, Wall:     0.02 s
Execution of tod_contract2<N, M, K>::kern_dmul2_ij_i_j: 
Calls:        168, Wall:     0.00 s
Execution of tod_contract2<N, M, K>::kern_dmul2_ij_ip_jp: 
Calls:      14718, Wall:     0.06 s
Execution of tod_contract2<N, M, K>::kern_dmul2_ij_ip_pj: 
Calls:       1828, Wall:     0.01 s
Execution of tod_contract2<N, M, K>::kern_dmul2_ij_jp_ip: 
Calls:         12, Wall:     0.00 s
Execution of tod_contract2<N, M, K>::kern_dmul2_ij_pi_jp: 
Calls:         98, Wall:     0.00 s
Execution of tod_contract2<N, M, K>::kern_dmul2_ij_pi_pj: 
Calls:        358, Wall:     0.00 s
Execution of tod_contract2<N, M, K>::kern_dmul2_ij_pj_ip: 
Calls:       2184, Wall:     0.01 s
Execution of tod_contract2<N, M, K>::kern_dmul2_ij_pj_pi: 
Calls:      14896, Wall:     0.06 s
Execution of tod_contract2<N, M, K>::kernel: 
Calls:      39054, Wall:     0.15 s
Execution of tod_contract2<N, M, K>::zeroc: 
Calls:       7552, Wall:     0.01 s
Execution of tod_copy<N>: 
Calls:      94095, Wall:    15.26 s
Execution of tod_copy<N>::kern_dadd1_i_i_x: 
Calls:      14341, Wall:     0.02 s
Execution of tod_copy<N>::kern_dadd1_ij_ij_x: 
Calls:        297, Wall:     0.00 s
Execution of tod_copy<N>::kern_dadd1_ij_ji_x: 
Calls:       1920, Wall:     0.01 s
Execution of tod_copy<N>::kern_dcopy_i_i_x: 
Calls:      37845, Wall:     0.04 s
Execution of tod_copy<N>::kern_dcopy_ij_ij_x: 
Calls:       7111, Wall:     0.02 s
Execution of tod_copy<N>::kern_dcopy_ij_ji_x: 
Calls:      32581, Wall:     0.10 s
Execution of tod_diag<N, M>: 
Calls:        528, Wall:     0.10 s
Execution of tod_dirsum<N, M>: 
Calls:       2144, Wall:     0.26 s
Execution of tod_dirsum<N, M>::kern_dadd2_i_i_x_x: 
Calls:       2144, Wall:     0.01 s
Execution of tod_dirsum<N, M>::zero: 
Calls:       2144, Wall:     0.00 s
Execution of tod_dotprod<N>: 
Calls:       6492, Wall:     0.84 s
Execution of tod_dotprod<N>::kern_dmul2_x_p_p: 
Calls:       5610, Wall:     0.01 s
Execution of tod_dotprod<N>::kern_dmul2_x_pq_qp: 
Calls:        882, Wall:     0.00 s
Execution of tod_mult1<N>: 
Calls:        176, Wall:     0.01 s
Execution of tod_mult1<N>::kern_ddiv1_i_i_x: 
Calls:        176, Wall:     0.00 s
Execution of tod_mult<N>: 
Calls:        464, Wall:     0.15 s
Execution of tod_mult<N>::kern_ddiv2: 
Calls:        464, Wall:     0.00 s
Execution of tod_scale<N>: 
Calls:        194, Wall:     0.00 s
Execution of tod_set<N>: 
Calls:       3323, Wall:     0.05 s
Execution of transf_list<N, T>: 
Calls:         48, Wall:     0.00 s

================================================================================
 
 --------------------------------------------------------------
             Orbital Energies (a.u.) and Symmetries
 --------------------------------------------------------------
 
 Alpha MOs, Restricted
 -- Occupied --                  
-11.257 -11.256 -11.250 -11.250 -11.250 -11.250 -11.249 -11.249
  1 Ag    1 B2u   1 B3u   2 Ag    1 B1g   2 B2u   2 B3u   3 Ag                 
-11.248 -11.248  -1.174  -1.106  -1.045  -1.004  -0.976  -0.851
  2 B1g   3 B2u   4 Ag    3 B3u   4 B2u   5 Ag    3 B1g   4 B3u                
 -0.835  -0.811  -0.705  -0.702  -0.684  -0.622  -0.620  -0.593
  5 B2u   6 Ag    5 B3u   4 B1g   7 Ag    6 B2u   8 Ag    6 B3u                
 -0.589  -0.565  -0.539  -0.529  -0.492  -0.480  -0.452  -0.392
  5 B1g   7 B2u   1 B1u   7 B3u   6 B1g   9 Ag    1 B2g   1 B3g                
 -0.327  -0.292
  2 B1u   1 Au                                                                 
 -- Virtual --                   
  0.082   0.116   0.172   0.182   0.199   0.200   0.237   0.241
  2 B2g   2 B3g   3 B1u  10 Ag    8 B3u   8 B2u  11 Ag    7 B1g                
  0.259   0.267   0.276   0.300   0.388   0.404   0.440   0.449
  9 B2u   2 Au    9 B3u   8 B1g   3 B3g  10 B2u  12 Ag   13 Ag                 
  0.460   0.467   0.472   0.495   0.523   0.562   0.567   0.569
 11 B2u   9 B1g  10 B3u  11 B3u  14 Ag   12 B3u  10 B1g  12 B2u                
  0.613   0.631   0.646   0.654   0.672   0.681   0.681   0.695
 15 Ag   16 Ag   13 B2u  13 B3u   4 B1u  11 B1g  14 B2u  14 B3u                
  0.710   0.728   0.732   0.737   0.757   0.782   0.795   0.844
  3 B2g  17 Ag   12 B1g   4 B3g  15 B2u   5 B1u   3 Au    5 B3g                
  0.863   0.866   0.908   0.923   0.928   0.929   0.930   0.935
  6 B1u   4 B2g  18 Ag   13 B1g  15 B3u  16 B2u   4 Au   19 Ag                 
  0.951   0.971   0.986   0.994   1.029   1.030   1.033   1.054
 17 B2u  14 B1g  16 B3u   6 B3g  18 B2u  15 B1g  17 B3u  20 Ag                 
  1.095   1.098   1.102   1.161   1.169   1.204   1.286   1.374
 19 B2u  21 Ag   16 B1g  20 B2u  18 B3u  17 B1g  21 B2u  19 B3u                
  1.376   1.390   1.510   1.534   1.548   1.606   1.784   1.831
 18 B1g  22 Ag   22 B2u  23 Ag   20 B3u  19 B1g  23 B2u  20 B1g                
 
 Beta MOs, Restricted
 -- Occupied --                  
-11.257 -11.256 -11.250 -11.250 -11.250 -11.250 -11.249 -11.249
  1 Ag    1 B2u   1 B3u   2 Ag    1 B1g   2 B2u   2 B3u   3 Ag                 
-11.248 -11.248  -1.174  -1.106  -1.045  -1.004  -0.976  -0.851
  2 B1g   3 B2u   4 Ag    3 B3u   4 B2u   5 Ag    3 B1g   4 B3u                
 -0.835  -0.811  -0.705  -0.702  -0.684  -0.622  -0.620  -0.593
  5 B2u   6 Ag    5 B3u   4 B1g   7 Ag    6 B2u   8 Ag    6 B3u                
 -0.589  -0.565  -0.539  -0.529  -0.492  -0.480  -0.452  -0.392
  5 B1g   7 B2u   1 B1u   7 B3u   6 B1g   9 Ag    1 B2g   1 B3g                
 -0.327  -0.292
  2 B1u   1 Au                                                                 
 -- Virtual --                   
  0.082   0.116   0.172   0.182   0.199   0.200   0.237   0.241
  2 B2g   2 B3g   3 B1u  10 Ag    8 B3u   8 B2u  11 Ag    7 B1g                
  0.259   0.267   0.276   0.300   0.388   0.404   0.440   0.449
  9 B2u   2 Au    9 B3u   8 B1g   3 B3g  10 B2u  12 Ag   13 Ag                 
  0.460   0.467   0.472   0.495   0.523   0.562   0.567   0.569
 11 B2u   9 B1g  10 B3u  11 B3u  14 Ag   12 B3u  10 B1g  12 B2u                
  0.613   0.631   0.646   0.654   0.672   0.681   0.681   0.695
 15 Ag   16 Ag   13 B2u  13 B3u   4 B1u  11 B1g  14 B2u  14 B3u                
  0.710   0.728   0.732   0.737   0.757   0.782   0.795   0.844
  3 B2g  17 Ag   12 B1g   4 B3g  15 B2u   5 B1u   3 Au    5 B3g                
  0.863   0.866   0.908   0.923   0.928   0.929   0.930   0.935
  6 B1u   4 B2g  18 Ag   13 B1g  15 B3u  16 B2u   4 Au   19 Ag                 
  0.951   0.971   0.986   0.994   1.029   1.030   1.033   1.054
 17 B2u  14 B1g  16 B3u   6 B3g  18 B2u  15 B1g  17 B3u  20 Ag                 
  1.095   1.098   1.102   1.161   1.169   1.204   1.286   1.374
 19 B2u  21 Ag   16 B1g  20 B2u  18 B3u  17 B1g  21 B2u  19 B3u                
  1.376   1.390   1.510   1.534   1.548   1.606   1.784   1.831
 18 B1g  22 Ag   22 B2u  23 Ag   20 B3u  19 B1g  23 B2u  20 B1g                
 --------------------------------------------------------------
 

                        RESTRICTED (RHF) MOLECULAR ORBITAL COEFFICIENTS
                         1         2         3         4         5         6
 eigenvalues:        -11.257   -11.256   -11.250   -11.250   -11.250   -11.250
   1  C 1   s        0.69793  -0.69666  -0.00000  -0.05243   0.00000  -0.07161
   2  C 1   s        0.02329  -0.02638  -0.00000  -0.00400   0.00000  -0.00501
   3  C 1   s       -0.00658   0.03124   0.00000   0.00663  -0.00000   0.05343
   4  C 1   px      -0.00000   0.00000  -0.00053   0.00000  -0.00023  -0.00000
   5  C 1   py      -0.00013  -0.00042   0.00000   0.00013   0.00000  -0.00026
   6  C 1   pz       0.00000  -0.00000  -0.00000  -0.00000  -0.00000  -0.00000
   7  C 1   px       0.00000  -0.00000  -0.00082  -0.00000   0.02799   0.00000
   8  C 1   py      -0.00309  -0.00863   0.00000   0.00190  -0.00000   0.02431
   9  C 1   pz      -0.00000  -0.00000   0.00000   0.00000   0.00000  -0.00000
  10  C 2   s        0.04454  -0.05216  -0.40972   0.40184   0.46732   0.46153
  11  C 2   s        0.00008  -0.00050  -0.01343   0.01385   0.01737   0.01759
  12  C 2   s        0.00248  -0.01313   0.00775  -0.01081   0.01497  -0.02354
  13  C 2   px      -0.00056   0.00061  -0.00008   0.00040   0.00056   0.00035
  14  C 2   py      -0.00025   0.00037   0.00009   0.00019   0.00039   0.00037
  15  C 2   pz      -0.00000   0.00000  -0.00000   0.00000   0.00000   0.00000
  16  C 2   px      -0.00253  -0.00554  -0.00126   0.00112   0.00256   0.00393
  17  C 2   py       0.00082   0.00018  -0.00200  -0.00241   0.01036  -0.01105
  18  C 2   pz       0.00000  -0.00000  -0.00000  -0.00000  -0.00000  -0.00000
  19  C 3   s        0.00164  -0.00536  -0.27874   0.28748   0.16438   0.17270
  20  C 3   s       -0.00061  -0.00067  -0.00829   0.00886   0.00535   0.00578
  21  C 3   s       -0.00282   0.00087   0.00110   0.00038  -0.01714   0.01407
  22  C 3   px      -0.00008  -0.00017   0.00031  -0.00011  -0.00038  -0.00012
  23  C 3   py      -0.00014   0.00002  -0.00011   0.00002   0.00048   0.00032
  24  C 3   pz       0.00000  -0.00000   0.00000   0.00000   0.00000  -0.00000
  25  C 3   px       0.00015   0.00093  -0.00031   0.00135  -0.00655   0.00521
  26  C 3   py       0.00199   0.00032   0.00112  -0.00070  -0.00386   0.00081
  27  C 3   pz      -0.00000   0.00000   0.00000   0.00000  -0.00000   0.00000
  28  C 4   s        0.00164   0.00536  -0.27874   0.28748  -0.16438  -0.17270
  29  C 4   s       -0.00061   0.00067  -0.00829   0.00886  -0.00535  -0.00578
  30  C 4   s       -0.00282  -0.00087   0.00110   0.00038   0.01714  -0.01407
  31  C 4   px      -0.00008   0.00017   0.00031  -0.00011   0.00038   0.00012
  32  C 4   py       0.00014   0.00002   0.00011  -0.00002   0.00048   0.00032
  33  C 4   pz       0.00000  -0.00000   0.00000  -0.00000   0.00000  -0.00000
  34  C 4   px       0.00015  -0.00093  -0.00031   0.00135   0.00655  -0.00521
  35  C 4   py      -0.00199   0.00032  -0.00112   0.00070  -0.00386   0.00081
  36  C 4   pz      -0.00000   0.00000  -0.00000   0.00000  -0.00000   0.00000
  37  C 5   s        0.04454   0.05216  -0.40972   0.40184  -0.46732  -0.46153
  38  C 5   s        0.00008   0.00050  -0.01343   0.01385  -0.01737  -0.01759
  39  C 5   s        0.00248   0.01313   0.00775  -0.01081  -0.01497   0.02354
  40  C 5   px      -0.00056  -0.00061  -0.00008   0.00040  -0.00056  -0.00035
  41  C 5   py       0.00025   0.00037  -0.00009  -0.00019   0.00039   0.00037
  42  C 5   pz      -0.00000   0.00000   0.00000   0.00000  -0.00000  -0.00000
  43  C 5   px      -0.00253   0.00554  -0.00126   0.00112  -0.00256  -0.00393
  44  C 5   py      -0.00082   0.00018   0.00200   0.00241   0.01036  -0.01105
  45  C 5   pz       0.00000  -0.00000   0.00000  -0.00000   0.00000  -0.00000
  46  C 6   s        0.69793   0.69666  -0.00000  -0.05243  -0.00000   0.07161
  47  C 6   s        0.02329   0.02638  -0.00000  -0.00400  -0.00000   0.00501
  48  C 6   s       -0.00658  -0.03124   0.00000   0.00663   0.00000  -0.05343
  49  C 6   px       0.00000   0.00000  -0.00053   0.00000   0.00023   0.00000
  50  C 6   py       0.00013  -0.00042  -0.00000  -0.00013   0.00000  -0.00026
  51  C 6   pz      -0.00000  -0.00000   0.00000   0.00000  -0.00000  -0.00000
  52  C 6   px      -0.00000   0.00000  -0.00082   0.00000  -0.02799  -0.00000
  53  C 6   py       0.00309  -0.00863  -0.00000  -0.00190  -0.00000   0.02431
  54  C 6   pz       0.00000   0.00000  -0.00000  -0.00000  -0.00000  -0.00000
  55  C 7   s        0.04454   0.05216   0.40972   0.40184   0.46732  -0.46153
  56  C 7   s        0.00008   0.00050   0.01343   0.01385   0.01737  -0.01759
  57  C 7   s        0.00248   0.01313  -0.00775  -0.01081   0.01497   0.02354
  58  C 7   px       0.00056   0.00061  -0.00008  -0.00040  -0.00056   0.00035
  59  C 7   py       0.00025   0.00037   0.00009  -0.00019  -0.00039   0.00037
  60  C 7   pz       0.00000  -0.00000  -0.00000   0.00000   0.00000   0.00000
  61  C 7   px       0.00253  -0.00554  -0.00126  -0.00112  -0.00256   0.00393
  62  C 7   py      -0.00082   0.00018  -0.00200   0.00241  -0.01036  -0.01105
  63  C 7   pz       0.00000   0.00000   0.00000  -0.00000  -0.00000  -0.00000
  64  C 8   s        0.00164   0.00536   0.27874   0.28748   0.16438  -0.17270
  65  C 8   s       -0.00061   0.00067   0.00829   0.00886   0.00535  -0.00578
  66  C 8   s       -0.00282  -0.00087  -0.00110   0.00038  -0.01714  -0.01407
  67  C 8   px       0.00008  -0.00017   0.00031   0.00011   0.00038  -0.00012
  68  C 8   py       0.00014   0.00002  -0.00011  -0.00002  -0.00048   0.00032
  69  C 8   pz       0.00000   0.00000  -0.00000  -0.00000  -0.00000   0.00000
  70  C 8   px      -0.00015   0.00093  -0.00031  -0.00135   0.00655   0.00521
  71  C 8   py      -0.00199   0.00032   0.00112   0.00070   0.00386   0.00081
  72  C 8   pz      -0.00000  -0.00000  -0.00000   0.00000   0.00000   0.00000
  73  H 1   s        0.00001   0.00073   0.00025  -0.00082  -0.00007  -0.00179
  74  H 1   s        0.00023   0.00163  -0.00331   0.00141   0.00373   0.00009
  75  H 2   s        0.00045   0.00007   0.00055  -0.00045  -0.00086  -0.00029
  76  H 2   s        0.00069   0.00015  -0.00079   0.00103  -0.00013   0.00056
  77  H 3   s        0.00045  -0.00007   0.00055  -0.00045   0.00086   0.00029
  78  H 3   s        0.00069  -0.00015  -0.00079   0.00103   0.00013  -0.00056
  79  H 4   s        0.00001  -0.00073   0.00025  -0.00082   0.00007   0.00179
  80  H 4   s        0.00023  -0.00163  -0.00331   0.00141  -0.00373  -0.00009
  81  H 5   s        0.00001  -0.00073  -0.00025  -0.00082  -0.00007   0.00179
  82  H 5   s        0.00023  -0.00163   0.00331   0.00141   0.00373  -0.00009
  83  C 9   s        0.00164  -0.00536   0.27874   0.28748  -0.16438   0.17270
  84  C 9   s       -0.00061  -0.00067   0.00829   0.00886  -0.00535   0.00578
  85  C 9   s       -0.00282   0.00087  -0.00110   0.00038   0.01714   0.01407
  86  C 9   px       0.00008   0.00017   0.00031   0.00011  -0.00038   0.00012
  87  C 9   py      -0.00014   0.00002   0.00011   0.00002  -0.00048   0.00032
  88  C 9   pz      -0.00000  -0.00000   0.00000   0.00000   0.00000   0.00000
  89  C 9   px      -0.00015  -0.00093  -0.00031  -0.00135  -0.00655  -0.00521
  90  C 9   py       0.00199   0.00032  -0.00112  -0.00070   0.00386   0.00081
  91  C 9   pz       0.00000   0.00000   0.00000  -0.00000  -0.00000  -0.00000
  92  C 10  s        0.04454  -0.05216   0.40972   0.40184  -0.46732   0.46153
  93  C 10  s        0.00008  -0.00050   0.01343   0.01385  -0.01737   0.01759
  94  C 10  s        0.00248  -0.01313  -0.00775  -0.01081  -0.01497  -0.02354
  95  C 10  px       0.00056  -0.00061  -0.00008  -0.00040   0.00056  -0.00035
  96  C 10  py      -0.00025   0.00037  -0.00009   0.00019  -0.00039   0.00037
  97  C 10  pz       0.00000  -0.00000   0.00000  -0.00000  -0.00000  -0.00000
  98  C 10  px       0.00253   0.00554  -0.00126  -0.00112   0.00256  -0.00393
  99  C 10  py       0.00082   0.00018   0.00200  -0.00241  -0.01036  -0.01105
 100  C 10  pz      -0.00000   0.00000  -0.00000   0.00000   0.00000   0.00000
 101  H 6   s        0.00045  -0.00007  -0.00055  -0.00045  -0.00086   0.00029
 102  H 6   s        0.00069  -0.00015   0.00079   0.00103  -0.00013  -0.00056
 103  H 7   s        0.00045   0.00007  -0.00055  -0.00045   0.00086  -0.00029
 104  H 7   s        0.00069   0.00015   0.00079   0.00103   0.00013   0.00056
 105  H 8   s        0.00001   0.00073  -0.00025  -0.00082   0.00007  -0.00179
[...]
  79  H 4   s        0.23784  -0.11050   0.06626   0.08021   0.04075  -0.31902
  80  H 4   s        0.29925   0.04345  -0.16217   0.03664   0.20190  -0.65153
  81  H 5   s        0.23784  -0.11050  -0.06626   0.08021  -0.04075   0.31902
  82  H 5   s        0.29925   0.04345   0.16217   0.03664  -0.20190   0.65153
  83  C 9   s       -0.06162   0.02150   0.08068  -0.04427  -0.01124  -0.03042
  84  C 9   s        0.46202  -0.06269  -0.50013   0.31611  -0.02271   0.27595
  85  C 9   s       -3.99519   0.03469   4.04657  -3.04719  -2.26067   0.01378
  86  C 9   px       0.03125   0.34899   0.36036  -0.31623  -0.15504  -0.30776
  87  C 9   py       0.42951   0.00234  -0.16353  -0.33657  -0.19747  -0.32297
  88  C 9   pz      -0.00000   0.00000   0.00000  -0.00000  -0.00000  -0.00000
  89  C 9   px       0.78078  -0.47272  -1.63362   1.82811   0.67421   2.18167
  90  C 9   py      -1.42319  -0.04074   0.65206   1.36556   1.11248   3.16593
  91  C 9   pz       0.00000  -0.00000  -0.00000   0.00000   0.00000   0.00000
  92  C 10  s        0.02464   0.02208  -0.07756   0.06883   0.00165  -0.00463
  93  C 10  s       -0.32150  -0.18051   0.34130  -0.53915   0.04297   0.11807
  94  C 10  s        4.08351   1.27601  -4.07842   4.47472   0.35189   1.08506
  95  C 10  px       0.17083   0.40716  -0.02687  -0.34152  -0.55524  -0.37591
  96  C 10  py       0.00243  -0.22061   0.36298  -0.17509  -0.08999   0.12949
  97  C 10  pz       0.00000  -0.00000  -0.00000  -0.00000   0.00000  -0.00000
  98  C 10  px      -0.69526  -1.07800  -0.12214   1.43737   2.62994   3.03462
  99  C 10  py       0.83283   0.33858  -1.61059   1.33951  -0.14084  -1.16583
 100  C 10  pz      -0.00000   0.00000   0.00000  -0.00000  -0.00000  -0.00000
 101  H 6   s       -0.01915   0.01061   0.07301  -0.06214   0.12636   0.10830
 102  H 6   s        0.00901   0.35966  -0.20026  -0.09365   0.09809   0.09311
 103  H 7   s        0.01915   0.01061  -0.07301   0.06214   0.12636  -0.10830
 104  H 7   s       -0.00901   0.35966   0.20026   0.09365   0.09809  -0.09311
 105  H 8   s       -0.23784  -0.11050   0.06626  -0.08021  -0.04075  -0.31902
 106  H 8   s       -0.29925   0.04345  -0.16217  -0.03664  -0.20190  -0.65153
                        97        98        99       100       101       102
 eigenvalues:          1.286     1.374     1.376     1.390     1.510     1.534
   1  C 1   s        0.04270   0.00000  -0.00000  -0.03960  -0.00799  -0.02406
   2  C 1   s       -0.40530  -0.00000   0.00000   0.44045   0.10727   0.22520
   3  C 1   s        4.74168   0.00000   0.00000   6.85505   4.26190  -0.16388
   4  C 1   px       0.00000  -0.64319  -0.27707   0.00000  -0.00000   0.00000
   5  C 1   py       0.63839   0.00000   0.00000   0.49473  -0.50168   0.48625
   6  C 1   pz       0.00000  -0.00000   0.00000   0.00000  -0.00000   0.00000
   7  C 1   px      -0.00000   1.87823   2.29001  -0.00000   0.00000  -0.00000
   8  C 1   py      -4.55663  -0.00000  -0.00000  -3.37971  10.39120  -2.38879
   9  C 1   pz      -0.00000   0.00000  -0.00000  -0.00000   0.00000   0.00000
  10  C 2   s       -0.06174  -0.00996  -0.03828  -0.03272  -0.04943   0.04671
  11  C 2   s        0.59706   0.10266   0.34826   0.25940   0.49066  -0.45091
  12  C 2   s       -3.08876   1.63850   0.66318  -4.09451   3.53328   0.30986
  13  C 2   px       0.05998   0.05671  -0.31559  -0.05182   0.01701  -0.13310
  14  C 2   py       0.33175   0.01502   0.34973   0.19305  -0.02424  -0.10397
  15  C 2   pz      -0.00000   0.00000   0.00000  -0.00000  -0.00000  -0.00000
  16  C 2   px      -2.58260  -0.81484   2.10423  -2.26852   2.94967  -0.45693
  17  C 2   py      -1.16081   0.07552  -1.06079  -1.24094  -0.70854   2.54852
  18  C 2   pz       0.00000  -0.00000  -0.00000   0.00000   0.00000  -0.00000
  19  C 3   s        0.00687   0.04709  -0.01853   0.07006  -0.06395  -0.00191
  20  C 3   s       -0.07697  -0.46820   0.20811  -0.67533   0.61019   0.00965
  21  C 3   s        1.82343  -1.25304   0.89874  -0.06483  -1.75502  -0.74548
  22  C 3   px       0.11976  -0.21960   0.02844  -0.21645   0.22361  -0.07514
  23  C 3   py       0.01197  -0.15950   0.20029  -0.14589  -0.03095   0.15570
  24  C 3   pz       0.00000  -0.00000  -0.00000  -0.00000  -0.00000  -0.00000
  25  C 3   px      -1.24899   0.66699  -0.19618   1.20313  -1.81530  -0.93142
  26  C 3   py       1.74546   1.22039  -1.20856   1.26394  -2.03465  -0.72865
  27  C 3   pz      -0.00000   0.00000   0.00000   0.00000  -0.00000   0.00000
  28  C 4   s       -0.00687   0.04709   0.01853   0.07006   0.06395  -0.00191
  29  C 4   s        0.07697  -0.46820  -0.20811  -0.67533  -0.61019   0.00965
  30  C 4   s       -1.82343  -1.25304  -0.89874  -0.06483   1.75502  -0.74548
  31  C 4   px      -0.11976  -0.21960  -0.02844  -0.21645  -0.22361  -0.07514
  32  C 4   py       0.01197   0.15950   0.20029   0.14589  -0.03095  -0.15570
  33  C 4   pz      -0.00000  -0.00000  -0.00000   0.00000   0.00000   0.00000
  34  C 4   px       1.24899   0.66699   0.19618   1.20313   1.81530  -0.93142
  35  C 4   py       1.74546  -1.22039  -1.20856  -1.26394  -2.03465   0.72865
  36  C 4   pz       0.00000   0.00000  -0.00000  -0.00000  -0.00000  -0.00000
  37  C 5   s        0.06174  -0.00996   0.03828  -0.03272   0.04943   0.04671
  38  C 5   s       -0.59706   0.10266  -0.34826   0.25940  -0.49066  -0.45091
  39  C 5   s        3.08876   1.63850  -0.66318  -4.09451  -3.53328   0.30986
  40  C 5   px      -0.05998   0.05671   0.31559  -0.05182  -0.01701  -0.13310
  41  C 5   py       0.33175  -0.01502   0.34973  -0.19305  -0.02424   0.10397
  42  C 5   pz       0.00000  -0.00000   0.00000  -0.00000  -0.00000  -0.00000
  43  C 5   px       2.58260  -0.81484  -2.10423  -2.26852  -2.94967  -0.45693
  44  C 5   py      -1.16081  -0.07552  -1.06079   1.24094  -0.70854  -2.54852
  45  C 5   pz      -0.00000   0.00000  -0.00000   0.00000   0.00000   0.00000
  46  C 6   s       -0.04270  -0.00000  -0.00000  -0.03960   0.00799  -0.02406
  47  C 6   s        0.40530   0.00000   0.00000   0.44045  -0.10727   0.22520
  48  C 6   s       -4.74168  -0.00000   0.00000   6.85505  -4.26190  -0.16388
  49  C 6   px       0.00000  -0.64319   0.27707  -0.00000   0.00000   0.00000
  50  C 6   py       0.63839   0.00000  -0.00000  -0.49473  -0.50168  -0.48625
  51  C 6   pz      -0.00000   0.00000   0.00000   0.00000   0.00000   0.00000
  52  C 6   px      -0.00000   1.87823  -2.29001   0.00000  -0.00000  -0.00000
  53  C 6   py      -4.55663  -0.00000   0.00000   3.37971  10.39120   2.38879
  54  C 6   pz       0.00000  -0.00000  -0.00000  -0.00000  -0.00000  -0.00000
  55  C 7   s        0.06174   0.00996  -0.03828  -0.03272   0.04943   0.04671
  56  C 7   s       -0.59706  -0.10266   0.34826   0.25940  -0.49066  -0.45091
  57  C 7   s        3.08876  -1.63850   0.66318  -4.09451  -3.53328   0.30986
  58  C 7   px       0.05998   0.05671   0.31559   0.05182   0.01701   0.13310
  59  C 7   py       0.33175   0.01502  -0.34973  -0.19305  -0.02424   0.10397
  60  C 7   pz       0.00000   0.00000  -0.00000   0.00000  -0.00000   0.00000
  61  C 7   px      -2.58260  -0.81484  -2.10423   2.26852   2.94967   0.45693
  62  C 7   py      -1.16081   0.07552   1.06079   1.24094  -0.70854  -2.54852
  63  C 7   pz      -0.00000   0.00000   0.00000  -0.00000   0.00000  -0.00000
  64  C 8   s       -0.00687  -0.04709  -0.01853   0.07006   0.06395  -0.00191
  65  C 8   s        0.07697   0.46820   0.20811  -0.67533  -0.61019   0.00965
  66  C 8   s       -1.82343   1.25304   0.89874  -0.06483   1.75502  -0.74548
  67  C 8   px       0.11976  -0.21960  -0.02844   0.21645   0.22361   0.07514
  68  C 8   py       0.01197  -0.15950  -0.20029   0.14589  -0.03095  -0.15570
  69  C 8   pz      -0.00000   0.00000   0.00000  -0.00000  -0.00000  -0.00000
  70  C 8   px      -1.24899   0.66699   0.19618  -1.20313  -1.81530   0.93142
  71  C 8   py       1.74546   1.22039   1.20856  -1.26394  -2.03465   0.72865
  72  C 8   pz       0.00000  -0.00000  -0.00000   0.00000  -0.00000   0.00000
  73  H 1   s       -0.11863  -0.08667  -0.37238  -0.04960  -0.34172   0.71140
  74  H 1   s       -0.07031  -0.18999  -0.47178   0.07700  -0.60452   0.78735
  75  H 2   s       -0.24940   0.43699  -0.29576   0.47386  -0.58393  -0.30204
  76  H 2   s       -0.39681   0.61634  -0.37805   0.57033  -0.59628  -0.28688
  77  H 3   s        0.24940   0.43699   0.29576   0.47386   0.58393  -0.30204
  78  H 3   s        0.39681   0.61634   0.37805   0.57033   0.59628  -0.28688
  79  H 4   s        0.11863  -0.08667   0.37238  -0.04960   0.34172   0.71140
  80  H 4   s        0.07031  -0.18999   0.47178   0.07700   0.60452   0.78735
  81  H 5   s        0.11863   0.08667  -0.37238  -0.04960   0.34172   0.71140
  82  H 5   s        0.07031   0.18999  -0.47178   0.07700   0.60452   0.78735
  83  C 9   s        0.00687  -0.04709   0.01853   0.07006  -0.06395  -0.00191
  84  C 9   s       -0.07697   0.46820  -0.20811  -0.67533   0.61019   0.00965
  85  C 9   s        1.82343   1.25304  -0.89874  -0.06483  -1.75502  -0.74548
  86  C 9   px      -0.11976  -0.21960   0.02844   0.21645  -0.22361   0.07514
  87  C 9   py       0.01197   0.15950  -0.20029  -0.14589  -0.03095   0.15570
  88  C 9   pz       0.00000   0.00000   0.00000  -0.00000   0.00000  -0.00000
  89  C 9   px       1.24899   0.66699  -0.19618  -1.20313   1.81530   0.93142
  90  C 9   py       1.74546  -1.22039   1.20856   1.26394  -2.03465  -0.72865
  91  C 9   pz      -0.00000   0.00000  -0.00000  -0.00000   0.00000   0.00000
  92  C 10  s       -0.06174   0.00996   0.03828  -0.03272  -0.04943   0.04671
  93  C 10  s        0.59706  -0.10266  -0.34826   0.25940   0.49066  -0.45091
  94  C 10  s       -3.08876  -1.63850  -0.66318  -4.09451   3.53328   0.30986
  95  C 10  px      -0.05998   0.05671  -0.31559   0.05182  -0.01701   0.13310
  96  C 10  py       0.33175  -0.01502  -0.34973   0.19305  -0.02424  -0.10397
  97  C 10  pz      -0.00000   0.00000  -0.00000  -0.00000   0.00000   0.00000
  98  C 10  px       2.58260  -0.81484   2.10423   2.26852  -2.94967   0.45693
  99  C 10  py      -1.16081  -0.07552   1.06079  -1.24094  -0.70854   2.54852
 100  C 10  pz       0.00000  -0.00000   0.00000   0.00000  -0.00000  -0.00000
 101  H 6   s        0.24940  -0.43699  -0.29576   0.47386   0.58393  -0.30204
 102  H 6   s        0.39681  -0.61634  -0.37805   0.57033   0.59628  -0.28688
 103  H 7   s       -0.24940  -0.43699   0.29576   0.47386  -0.58393  -0.30204
 104  H 7   s       -0.39681  -0.61634   0.37805   0.57033  -0.59628  -0.28688
 105  H 8   s       -0.11863   0.08667   0.37238  -0.04960  -0.34172   0.71140
 106  H 8   s       -0.07031   0.18999   0.47178   0.07700  -0.60452   0.78735
                       103       104       105       106
 eigenvalues:          1.548     1.606     1.784     1.831
   1  C 1   s       -0.00000   0.00000  -0.00294  -0.00000
   2  C 1   s        0.00000  -0.00000   0.22904   0.00000
   3  C 1   s       -0.00000  -0.00000 -19.78704  -0.00000
   4  C 1   px      -0.28995   0.49794  -0.00000   0.41012
   5  C 1   py       0.00000  -0.00000   0.18397   0.00000
   6  C 1   pz      -0.00000  -0.00000  -0.00000  -0.00000
   7  C 1   px       4.32443  -4.79710   0.00000 -13.88857
   8  C 1   py      -0.00000  -0.00000  -7.02623  -0.00000
   9  C 1   pz      -0.00000  -0.00000   0.00000   0.00000
  10  C 2   s        0.01092   0.04111   0.06602   0.05527
  11  C 2   s       -0.08256  -0.40609  -0.82110  -0.59992
  12  C 2   s        4.71571  -0.01385   9.40655 -13.85511
  13  C 2   px       0.17113  -0.23286  -0.17452  -0.27040
  14  C 2   py      -0.15879  -0.14849  -0.08062  -0.11078
  15  C 2   pz       0.00000  -0.00000   0.00000   0.00000
  16  C 2   px      -0.18229  -0.93743  -0.72247  -0.74870
  17  C 2   py       4.12858   0.77193   5.78274  -6.68958
  18  C 2   pz       0.00000   0.00000  -0.00000  -0.00000
  19  C 3   s       -0.01458  -0.02755  -0.00782   0.01980
  20  C 3   s        0.08768   0.28006   0.15827  -0.25520
  21  C 3   s       -2.32665  -3.60115 -10.94157  11.61042
  22  C 3   px      -0.05331   0.15409   0.00013  -0.00386
  23  C 3   py       0.16407  -0.06455   0.00229  -0.06277
  24  C 3   pz      -0.00000   0.00000  -0.00000  -0.00000
  25  C 3   px      -1.53735  -3.17893  -5.26220   4.81599
  26  C 3   py      -0.52789  -1.30292  -2.82428   2.97291
  27  C 3   pz      -0.00000  -0.00000   0.00000   0.00000
  28  C 4   s       -0.01458   0.02755   0.00782  -0.01980
  29  C 4   s        0.08768  -0.28006  -0.15827   0.25520
  30  C 4   s       -2.32665   3.60115  10.94157 -11.61042
  31  C 4   px      -0.05331  -0.15409  -0.00013   0.00386
  32  C 4   py      -0.16407  -0.06455   0.00229  -0.06277
  33  C 4   pz       0.00000   0.00000   0.00000  -0.00000
  34  C 4   px      -1.53735   3.17893   5.26220  -4.81599
  35  C 4   py       0.52789  -1.30292  -2.82428   2.97291
  36  C 4   pz      -0.00000  -0.00000  -0.00000  -0.00000
  37  C 5   s        0.01092  -0.04111  -0.06602  -0.05527
  38  C 5   s       -0.08256   0.40609   0.82110   0.59992
  39  C 5   s        4.71571   0.01385  -9.40655  13.85511
  40  C 5   px       0.17113   0.23286   0.17452   0.27040
  41  C 5   py       0.15879  -0.14849  -0.08062  -0.11078
  42  C 5   pz      -0.00000  -0.00000  -0.00000   0.00000
  43  C 5   px      -0.18229   0.93743   0.72247   0.74870
  44  C 5   py      -4.12858   0.77193   5.78274  -6.68958
  45  C 5   pz       0.00000   0.00000   0.00000   0.00000
  46  C 6   s       -0.00000  -0.00000   0.00294   0.00000
  47  C 6   s        0.00000   0.00000  -0.22904  -0.00000
  48  C 6   s        0.00000   0.00000  19.78704   0.00000
  49  C 6   px      -0.28995  -0.49794   0.00000  -0.41012
  50  C 6   py      -0.00000   0.00000   0.18397   0.00000
  51  C 6   pz      -0.00000  -0.00000   0.00000   0.00000
  52  C 6   px       4.32443   4.79710  -0.00000  13.88857
  53  C 6   py      -0.00000  -0.00000  -7.02623  -0.00000
  54  C 6   pz       0.00000   0.00000  -0.00000  -0.00000
  55  C 7   s       -0.01092   0.04111  -0.06602   0.05527
  56  C 7   s        0.08256  -0.40609   0.82110  -0.59992
  57  C 7   s       -4.71571  -0.01385  -9.40655 -13.85511
  58  C 7   px       0.17113   0.23286  -0.17452   0.27040
  59  C 7   py      -0.15879   0.14849  -0.08062   0.11078
  60  C 7   pz       0.00000  -0.00000  -0.00000  -0.00000
  61  C 7   px      -0.18229   0.93743  -0.72247   0.74870
  62  C 7   py       4.12858  -0.77193   5.78274   6.68958
  63  C 7   pz      -0.00000  -0.00000   0.00000   0.00000
  64  C 8   s        0.01458  -0.02755   0.00782   0.01980
  65  C 8   s       -0.08768   0.28006  -0.15827  -0.25520
  66  C 8   s        2.32665  -3.60115  10.94157  11.61042
  67  C 8   px      -0.05331  -0.15409   0.00013   0.00386
  68  C 8   py       0.16407   0.06455   0.00229   0.06277
  69  C 8   pz      -0.00000   0.00000   0.00000  -0.00000
  70  C 8   px      -1.53735   3.17893  -5.26220  -4.81599
  71  C 8   py      -0.52789   1.30292  -2.82428  -2.97291
  72  C 8   pz       0.00000   0.00000  -0.00000  -0.00000
  73  H 1   s        0.83122   0.17938   0.74024  -0.76844
  74  H 1   s        0.86241   0.27930   0.77764  -0.61665
  75  H 2   s       -0.27321  -0.68953  -0.75801   0.58164
  76  H 2   s       -0.24466  -0.72528  -0.70506   0.51408
  77  H 3   s       -0.27321   0.68953   0.75801  -0.58164
  78  H 3   s       -0.24466   0.72528   0.70506  -0.51408
  79  H 4   s        0.83122  -0.17938  -0.74024   0.76844
  80  H 4   s        0.86241  -0.27930  -0.77764   0.61665
  81  H 5   s       -0.83122   0.17938  -0.74024  -0.76844
  82  H 5   s       -0.86241   0.27930  -0.77764  -0.61665
  83  C 9   s        0.01458   0.02755  -0.00782  -0.01980
  84  C 9   s       -0.08768  -0.28006   0.15827   0.25520
  85  C 9   s        2.32665   3.60115 -10.94157 -11.61042
  86  C 9   px      -0.05331   0.15409  -0.00013  -0.00386
  87  C 9   py      -0.16407   0.06455   0.00229   0.06277
  88  C 9   pz      -0.00000  -0.00000  -0.00000  -0.00000
  89  C 9   px      -1.53735  -3.17893   5.26220   4.81599
  90  C 9   py       0.52789   1.30292  -2.82428  -2.97291
  91  C 9   pz      -0.00000  -0.00000   0.00000   0.00000
  92  C 10  s       -0.01092  -0.04111   0.06602  -0.05527
  93  C 10  s        0.08256   0.40609  -0.82110   0.59992
  94  C 10  s       -4.71571   0.01385   9.40655  13.85511
  95  C 10  px       0.17113  -0.23286   0.17452  -0.27040
  96  C 10  py       0.15879   0.14849  -0.08062   0.11078
  97  C 10  pz      -0.00000  -0.00000   0.00000   0.00000
  98  C 10  px      -0.18229  -0.93743   0.72247  -0.74870
  99  C 10  py      -4.12858  -0.77193   5.78274   6.68958
 100  C 10  pz       0.00000   0.00000  -0.00000  -0.00000
 101  H 6   s        0.27321  -0.68953   0.75801   0.58164
 102  H 6   s        0.24466  -0.72528   0.70506   0.51408
 103  H 7   s        0.27321   0.68953  -0.75801  -0.58164
 104  H 7   s        0.24466   0.72528  -0.70506  -0.51408
 105  H 8   s       -0.83122  -0.17938   0.74024   0.76844
 106  H 8   s       -0.86241  -0.27930   0.77764   0.61665
 


          Ground-State Mulliken Net Atomic Charges

     Atom                 Charge (a.u.)
  ----------------------------------------
      1 C                    -0.063827
      2 C                    -0.096639
      3 C                    -0.121040
      4 C                    -0.121040
      5 C                    -0.096639
      6 C                    -0.063827
      7 C                    -0.096639
      8 C                    -0.121040
      9 H                     0.122217
     10 H                     0.127377
     11 H                     0.127377
     12 H                     0.122217
     13 H                     0.122217
     14 C                    -0.121040
     15 C                    -0.096639
     16 H                     0.127377
     17 H                     0.127377
     18 H                     0.122217
  ----------------------------------------
  Sum of atomic charges =     0.000000

 -----------------------------------------------------------------
                    Cartesian Multipole Moments
 -----------------------------------------------------------------
    Charge (ESU x 10^10)
                 0.0000
    Dipole Moment (Debye)
         X      -0.0000      Y      -0.0000      Z       0.0000
       Tot       0.0000
    Quadrupole Moments (Debye-Ang)
        XX     -52.8353     XY      -0.0000     YY     -52.8193
        XZ       0.0000     YZ       0.0000     ZZ     -66.4874
    Octopole Moments (Debye-Ang^2)
       XXX      -0.0000    XXY      -0.0000    XYY      -0.0000
       YYY      -0.0000    XXZ      -0.0000    XYZ       0.0000
       YYZ      -0.0000    XZZ       0.0000    YZZ       0.0000
       ZZZ       0.0000
    Hexadecapole Moments (Debye-Ang^3)
      XXXX   -1112.2175   XXXY      -0.0000   XXYY    -272.7260
      XYYY      -0.0000   YYYY    -487.3294   XXXZ       0.0000
      XXYZ       0.0000   XYYZ      -0.0000   YYYZ       0.0000
      XXZZ    -246.8465   XYZZ      -0.0000   YYZZ    -114.3758
      XZZZ      -0.0000   YZZZ       0.0000   ZZZZ     -77.1133
 -----------------------------------------------------------------
Archival summary:
1\1\magrid-mac-18.lut.ac.uk\SP\HF\BasisUnspecified\108\FriJul2011:11:242018FriJul2011:11:242018\0\\#,HF,BasisUnspecified,\\0,1\C\C,1,1.42295\H,2,1.09764,1,118.915\C,2,1.3841,1,120.755,3,180,0\H,4,1.09667,2,120.006,1,180,0\C,4,1.41864,2,120.274,1,0,0\H,6,1.09667,4,119.72,2,-180,0\C,6,1.3841,4,120.274,2,-0,0\H,8,1.09764,6,120.33,4,180,0\C,8,1.42295,6,120.755,4,0,0\C,10,1.42295,8,122.057,6,180,0\H,11,1.09764,10,118.915,8,-0,0\C,11,1.3841,10,120.755,8,-180,0\H,13,1.09667,11,120.006,10,-180,0\C,13,1.41864,11,120.274,10,-0,0\H,15,1.09667,13,119.72,11,180,0\C,15,1.3841,13,120.274,11,0,0\H,17,1.09764,15,120.33,13,-180,0\\HF=-382.912794\\@

 Total job time:  43.37s(wall), 76.32s(cpu) 
 Fri Jul 20 11:11:24 2018

