[Molden Format]
[Atoms] (Angs)
  N      1    7      0.00000000     -0.00000000      1.11738466
  H      2    1      0.00000000     -0.00000000      2.12136066
  C      3    6      1.12201016     -0.00000000      0.33463977
  H      4    1      2.10556415     -0.00000000      0.76898420
  C      5    6     -1.12201016      0.00000000      0.33463977
  H      6    1     -2.10556415      0.00000000      0.76898420
  C      7    6     -0.70797599     -0.00000000     -0.98428136
  H      8    1     -1.35674211      0.00000000     -1.84266130
  C      9    6      0.70797599      0.00000000     -0.98428136
  H     10    1      1.35674211      0.00000000     -1.84266130
[GTO]
1    0
S    7    1.000000
   9.04600000E+03    7.00000000E-04 
   1.35700000E+03    5.38983000E-03 
   3.09300000E+02    2.74060000E-02 
   8.77300000E+01    1.03262320E-01 
   2.85600000E+01    2.78905240E-01 
   1.02100000E+01    4.50217400E-01 
   3.83800000E+00    2.79943000E-01 
S    7    1.000000
   9.04600000E+03    5.00000000E-08 
   1.35700000E+03   -2.97600000E-05 
   8.77300000E+01   -1.97900000E-03 
   2.85600000E+01   -6.51949000E-03 
   1.02100000E+01   -6.00100000E-02 
   3.83800000E+00   -6.09975300E-02 
   7.46600000E-01    5.52378750E-01 
S    1    1.000000
   2.24800000E-01    1.00000000E+00 
P    3    1.000000
   1.35500000E+01    3.99190000E-02 
   2.91700000E+00    2.17169000E-01 
   7.97300000E-01    5.10319000E-01 
P    1    1.000000
   2.18500000E-01    1.00000000E+00 
D    1    1.000000
   8.17000000E-01    1.00000000E+00 

2    0
S    3    1.000000
   1.30100000E+01    1.96850000E-02 
   1.96200000E+00    1.37977000E-01 
   4.44600000E-01    4.78148000E-01 
S    1    1.000000
   1.22000000E-01    1.00000000E+00 
P    1    1.000000
   7.27000000E-01    1.00000000E+00 

3    0
S    7    1.000000
   6.66500000E+03    6.91990000E-04 
   1.00000000E+03    5.32976000E-03 
   2.28000000E+02    2.70770000E-02 
   6.47100000E+01    1.01768130E-01 
   2.10600000E+01    2.74902850E-01 
   7.49500000E+00    4.50094590E-01 
   2.79700000E+00    2.86933450E-01 
S    7    1.000000
   6.66500000E+03    3.10000000E-07 
   1.00000000E+03   -2.72700000E-05 
   6.47100000E+01   -1.80535000E-03 
   2.10600000E+01   -5.86561000E-03 
   7.49500000E+00   -5.51393100E-02 
   2.79700000E+00   -6.69876600E-02 
   5.21500000E-01    5.47743760E-01 
S    1    1.000000
   1.59600000E-01    1.00000000E+00 
P    3    1.000000
   9.43900000E+00    3.81090000E-02 
   2.00200000E+00    2.09480000E-01 
   5.45600000E-01    5.08557000E-01 
P    1    1.000000
   1.51700000E-01    1.00000000E+00 
D    1    1.000000
   5.50000000E-01    1.00000000E+00 

4    0
S    3    1.000000
   1.30100000E+01    1.96850000E-02 
   1.96200000E+00    1.37977000E-01 
   4.44600000E-01    4.78148000E-01 
S    1    1.000000
   1.22000000E-01    1.00000000E+00 
P    1    1.000000
   7.27000000E-01    1.00000000E+00 

5    0
S    7    1.000000
   6.66500000E+03    6.91990000E-04 
   1.00000000E+03    5.32976000E-03 
   2.28000000E+02    2.70770000E-02 
   6.47100000E+01    1.01768130E-01 
   2.10600000E+01    2.74902850E-01 
   7.49500000E+00    4.50094590E-01 
   2.79700000E+00    2.86933450E-01 
S    7    1.000000
   6.66500000E+03    3.10000000E-07 
   1.00000000E+03   -2.72700000E-05 
   6.47100000E+01   -1.80535000E-03 
   2.10600000E+01   -5.86561000E-03 
   7.49500000E+00   -5.51393100E-02 
   2.79700000E+00   -6.69876600E-02 
   5.21500000E-01    5.47743760E-01 
S    1    1.000000
   1.59600000E-01    1.00000000E+00 
P    3    1.000000
   9.43900000E+00    3.81090000E-02 
   2.00200000E+00    2.09480000E-01 
   5.45600000E-01    5.08557000E-01 
P    1    1.000000
   1.51700000E-01    1.00000000E+00 
D    1    1.000000
   5.50000000E-01    1.00000000E+00 

6    0
S    3    1.000000
   1.30100000E+01    1.96850000E-02 
   1.96200000E+00    1.37977000E-01 
   4.44600000E-01    4.78148000E-01 
S    1    1.000000
   1.22000000E-01    1.00000000E+00 
P    1    1.000000
   7.27000000E-01    1.00000000E+00 

7    0
S    7    1.000000
   6.66500000E+03    6.91990000E-04 
   1.00000000E+03    5.32976000E-03 
   2.28000000E+02    2.70770000E-02 
   6.47100000E+01    1.01768130E-01 
   2.10600000E+01    2.74902850E-01 
   7.49500000E+00    4.50094590E-01 
   2.79700000E+00    2.86933450E-01 
S    7    1.000000
   6.66500000E+03    3.10000000E-07 
   1.00000000E+03   -2.72700000E-05 
   6.47100000E+01   -1.80535000E-03 
   2.10600000E+01   -5.86561000E-03 
   7.49500000E+00   -5.51393100E-02 
   2.79700000E+00   -6.69876600E-02 
   5.21500000E-01    5.47743760E-01 
S    1    1.000000
   1.59600000E-01    1.00000000E+00 
P    3    1.000000
   9.43900000E+00    3.81090000E-02 
   2.00200000E+00    2.09480000E-01 
   5.45600000E-01    5.08557000E-01 
P    1    1.000000
   1.51700000E-01    1.00000000E+00 
D    1    1.000000
   5.50000000E-01    1.00000000E+00 

8    0
S    3    1.000000
   1.30100000E+01    1.96850000E-02 
   1.96200000E+00    1.37977000E-01 
   4.44600000E-01    4.78148000E-01 
S    1    1.000000
   1.22000000E-01    1.00000000E+00 
P    1    1.000000
   7.27000000E-01    1.00000000E+00 

9    0
S    7    1.000000
   6.66500000E+03    6.91990000E-04 
   1.00000000E+03    5.32976000E-03 
   2.28000000E+02    2.70770000E-02 
   6.47100000E+01    1.01768130E-01 
   2.10600000E+01    2.74902850E-01 
   7.49500000E+00    4.50094590E-01 
   2.79700000E+00    2.86933450E-01 
S    7    1.000000
   6.66500000E+03    3.10000000E-07 
   1.00000000E+03   -2.72700000E-05 
   6.47100000E+01   -1.80535000E-03 
   2.10600000E+01   -5.86561000E-03 
   7.49500000E+00   -5.51393100E-02 
   2.79700000E+00   -6.69876600E-02 
   5.21500000E-01    5.47743760E-01 
S    1    1.000000
   1.59600000E-01    1.00000000E+00 
P    3    1.000000
   9.43900000E+00    3.81090000E-02 
   2.00200000E+00    2.09480000E-01 
   5.45600000E-01    5.08557000E-01 
P    1    1.000000
   1.51700000E-01    1.00000000E+00 
D    1    1.000000
   5.50000000E-01    1.00000000E+00 

10    0
S    3    1.000000
   1.30100000E+01    1.96850000E-02 
   1.96200000E+00    1.37977000E-01 
   4.44600000E-01    4.78148000E-01 
S    1    1.000000
   1.22000000E-01    1.00000000E+00 
P    1    1.000000
   7.27000000E-01    1.00000000E+00 

[5D]
[MO]
 Sym= X
 Ene= -0.585850
 Spin= Alpha
 Occup= -0.585850
         1   -0.00000
         2   -0.00000
         3    0.00000
         4   -0.00000
         5   -0.32772
         6    0.00000
         7    0.00000
         8   -0.30734
         9   -0.00000
        10    0.00000
        11    0.00000
        12   -0.00685
        13   -0.00000
        14   -0.00000
        15    0.00000
        16    0.00000
        17   -0.00000
        18   -0.01773
        19    0.00000
        20    0.00000
        21   -0.00000
        22    0.00000
        23   -0.00000
        24    0.05661
        25   -0.00000
        26    0.00000
        27    0.02935
        28   -0.00000
        29    0.00000
        30    0.00000
        31   -0.03851
        32   -0.00000
        33    0.00580
        34    0.00000
        35    0.00000
        36   -0.00000
        37    0.00229
        38   -0.00000
        39    0.00000
        40    0.00000
        41   -0.00000
        42    0.00000
        43    0.05661
        44    0.00000
        45   -0.00000
        46    0.02935
        47    0.00000
        48    0.00000
        49    0.00000
        50   -0.03851
        51   -0.00000
        52   -0.00580
        53    0.00000
        54   -0.00000
        55    0.00000
        56    0.00229
        57   -0.00000
        58   -0.00000
        59   -0.00000
        60    0.00000
        61   -0.00000
        62    0.32377
        63   -0.00000
        64    0.00000
        65    0.25830
        66    0.00000
        67    0.00000
        68    0.00000
        69    0.00480
        70    0.00000
        71    0.01604
        72   -0.00000
        73    0.00000
        74    0.00000
        75    0.01245
        76   -0.00000
        77    0.00000
        78    0.00000
        79   -0.00000
        80    0.00000
        81    0.32377
        82   -0.00000
        83    0.00000
        84    0.25830
        85   -0.00000
        86   -0.00000
        87    0.00000
        88    0.00480
        89   -0.00000
        90   -0.01604
        91   -0.00000
        92   -0.00000
        93    0.00000
        94    0.01245
        95    0.00000
 Sym= X
 Ene= -0.370797
 Spin= Alpha
 Occup= -0.370797
         1    0.00000
         2   -0.00000
         3    0.00000
         4    0.00000
         5   -0.00000
         6   -0.00000
         7   -0.00000
         8   -0.00000
         9   -0.00000
        10    0.00000
        11    0.00000
        12   -0.00000
        13    0.00000
        14   -0.02300
        15    0.00000
        16    0.00000
        17    0.00000
        18   -0.00000
        19   -0.00000
        20   -0.00000
        21    0.00000
        22    0.00000
        23    0.00000
        24   -0.35685
        25   -0.00000
        26    0.00000
        27   -0.30250
        28    0.00000
        29    0.00000
        30    0.00000
        31    0.00828
        32   -0.00000
        33    0.00057
        34   -0.00000
        35   -0.00000
        36    0.00000
        37   -0.01295
        38    0.00000
        39   -0.00000
        40    0.00000
        41   -0.00000
        42    0.00000
        43    0.35685
        44   -0.00000
        45   -0.00000
        46    0.30250
        47    0.00000
        48   -0.00000
        49    0.00000
        50   -0.00828
        51   -0.00000
        52    0.00057
        53    0.00000
        54    0.00000
        55    0.00000
        56    0.01295
        57   -0.00000
        58   -0.00000
        59    0.00000
        60    0.00000
        61   -0.00000
        62    0.20477
        63    0.00000
        64   -0.00000
        65    0.18488
        66    0.00000
        67   -0.00000
        68    0.00000
        69    0.02585
        70    0.00000
        71   -0.02988
        72   -0.00000
        73   -0.00000
        74   -0.00000
        75    0.00773
        76    0.00000
        77   -0.00000
        78   -0.00000
        79    0.00000
        80   -0.00000
        81   -0.20477
        82   -0.00000
        83   -0.00000
        84   -0.18488
        85    0.00000
        86   -0.00000
        87    0.00000
        88   -0.02585
        89   -0.00000
        90   -0.02988
        91    0.00000
        92    0.00000
        93    0.00000
        94   -0.00773
        95    0.00000
 Sym= X
 Ene= 0.375872
 Spin= Alpha
 Occup= 0.375872
         1   -0.00000
         2   -0.00000
         3    0.00000
         4    0.00000
         5    0.00000
         6    0.00000
         7    0.00000
         8    0.00000
         9   -0.00000
        10    0.00000
        11   -0.00000
        12   -0.00000
        13   -0.00000
        14   -0.02861
        15   -0.00000
        16    0.00000
        17   -0.00000
        18    0.00000
        19   -0.00000
        20    0.00000
        21    0.00000
        22   -0.00000
        23    0.00000
        24   -0.23398
        25   -0.00000
        26    0.00000
        27   -0.43316
        28   -0.00000
        29    0.00000
        30    0.00000
        31   -0.03396
        32   -0.00000
        33   -0.00199
        34    0.00000
        35    0.00000
        36   -0.00000
        37   -0.01387
        38    0.00000
        39    0.00000
        40    0.00000
        41    0.00000
        42    0.00000
        43    0.23398
        44    0.00000
        45    0.00000
        46    0.43316
        47    0.00000
        48   -0.00000
        49    0.00000
        50    0.03396
        51    0.00000
        52   -0.00199
        53   -0.00000
        54   -0.00000
        55   -0.00000
        56    0.01387
        57   -0.00000
        58    0.00000
        59    0.00000
        60    0.00000
        61   -0.00000
        62   -0.40074
        63    0.00000
        64    0.00000
        65   -0.67568
        66   -0.00000
        67   -0.00000
        68    0.00000
        69    0.01276
        70    0.00000
        71    0.01432
        72   -0.00000
        73    0.00000
        74   -0.00000
        75   -0.02027
        76    0.00000
        77   -0.00000
        78    0.00000
        79   -0.00000
        80   -0.00000
        81    0.40074
        82   -0.00000
        83    0.00000
        84    0.67568
        85   -0.00000
        86   -0.00000
        87    0.00000
        88   -0.01276
        89   -0.00000
        90    0.01432
        91    0.00000
        92   -0.00000
        93    0.00000
        94    0.02027
        95   -0.00000
 Sym= X
 Ene= 0.589247
 Spin= Alpha
 Occup= 0.589247
         1   -0.00000
         2    0.00000
         3   -0.00000
         4    0.00000
         5    0.32815
         6   -0.00000
         7    0.00000
         8    0.51750
         9    0.00000
        10   -0.00000
        11   -0.00000
        12    0.01259
        13   -0.00000
        14    0.00000
        15   -0.00000
        16   -0.00000
        17   -0.00000
        18    0.02138
        19   -0.00000
        20    0.00000
        21   -0.00000
        22   -0.00000
        23    0.00000
        24   -0.36612
        25   -0.00000
        26   -0.00000
        27   -0.51272
        28   -0.00000
        29   -0.00000
        30   -0.00000
        31    0.00124
        32    0.00000
        33   -0.02308
        34    0.00000
        35    0.00000
        36    0.00000
        37   -0.02076
        38    0.00000
        39    0.00000
        40   -0.00000
        41    0.00000
        42   -0.00000
        43   -0.36612
        44   -0.00000
        45    0.00000
        46   -0.51272
        47   -0.00000
        48    0.00000
        49    0.00000
        50    0.00124
        51    0.00000
        52    0.02308
        53    0.00000
        54    0.00000
        55   -0.00000
        56   -0.02076
        57    0.00000
        58   -0.00000
        59    0.00000
        60   -0.00000
        61   -0.00000
        62    0.18170
        63   -0.00000
        64   -0.00000
        65    0.27350
        66   -0.00000
        67   -0.00000
        68   -0.00000
        69   -0.02032
        70   -0.00000
        71    0.02278
        72    0.00000
        73   -0.00000
        74    0.00000
        75    0.00931
        76    0.00000
        77    0.00000
        78   -0.00000
        79   -0.00000
        80    0.00000
        81    0.18170
        82    0.00000
        83   -0.00000
        84    0.27350
        85    0.00000
        86   -0.00000
        87    0.00000
        88   -0.02032
        89   -0.00000
        90   -0.02278
        91    0.00000
        92    0.00000
        93   -0.00000
        94    0.00931
        95    0.00000
