                  Welcome to Q-Chem
     A Quantum Leap Into The Future Of Chemistry


 Q-Chem 4.3, Q-Chem, Inc., Pleasanton, CA (2015)

 Y. Shao,  Z. Gan,  E. Epifanovsky,  A. T. B. Gilbert,  M. Wormit,  
 J. Kussmann,  A. W. Lange,  A. Behn,  J. Deng,  X. Feng,  D. Ghosh,  
 M. Goldey,  P. R. Horn,  L. D. Jacobson,  I. Kaliman,  R. Z. Khaliullin,  
 T. Kus,  A. Landau,  J. Liu,  E. I. Proynov,  Y. M. Rhee,  R. M. Richard,  
 M. A. Rohrdanz,  R. P. Steele,  E. J. Sundstrom,  H. L. Woodcock III,  
 P. M. Zimmerman,  D. Zuev,  B. Albrecht,  E. Alguire,  B. Austin,  
 S. A. Baeppler,  G. J. O. Beran,  Y. A. Bernard,  E. Berquist,  
 K. Brandhorst,  K. B. Bravaya,  S. T. Brown,  D. Casanova,  C.-M. Chang,  
 Y. Chen,  S. H. Chien,  K. D. Closser,  D. L. Crittenden,  M. Diedenhofen,  
 R. A. DiStasio Jr.,  H. Do,  A. D. Dutoi,  R. G. Edgar,  P.-T. Fang,  
 S. Fatehi,  Q. Feng,  L. Fusti-Molnar,  A. Ghysels,  
 A. Golubeva-Zadorozhnaya,  J. Gomes,  A. Gunina,  M. W. D. Hanson-Heine,  
 P. H. P. Harbach,  A. W. Hauser,  E. G. Hohenstein,  Z. C. Holden,  K. Hui,  
 T.-C. Jagau,  H. Ji,  B. Kaduk,  K. Khistyaev,  Jaehoon Kim,  Jihan Kim,  
 R. A. King,  P. Klunzinger,  D. Kosenkov,  T. Kowalczyk,  C. M. Krauter,  
 K. U. Lao,  A. Laurent,  K. V. Lawler,  S. Lehtola,  S. V. Levchenko,  
 C. Y. Lin,  Y.-S. Lin,  F. Liu,  E. Livshits,  R. C. Lochan,  A. Luenser,  
 P. Manohar,  S. F. Manzer,  S.-P. Mao,  N. Mardirossian,  A. V. Marenich,  
 L. A. Martinez-Martinez,  S. A. Maurer,  N. J. Mayhall,  K. Nanda,  
 C. M. Oana,  R. Olivares-Amaya,  D. P. O'Neill,  J. A. Parkhill,  
 T. M. Perrine,  R. Peverati,  P. A. Pieniazek,  F. Plasser,  A. Prociuk,  
 D. R. Rehn,  E. Rosta,  N. J. Russ,  N. Sergueev,  S. M. Sharada,  
 S. Sharma,  D. W. Small,  A. Sodt,  T. Stauch,  T. Stein,  D. Stuck,  
 Y.-C. Su,  A. J. W. Thom,  T. Tsuchimochi,  L. Vogt,  O. Vydrov,  T. Wang,  
 M. A. Watson,  J. Wenzel,  A. White,  C. F. Williams,  V. Vanovschi,  
 S. Yeganeh,  S. R. Yost,  Z.-Q. You,  I. Y. Zhang,  X. Zhang,  Y. Zhao,  
 B. R. Brooks,  G. K. L. Chan,  D. M. Chipman,  C. J. Cramer,  
 W. A. Goddard III,  M. S. Gordon,  W. J. Hehre,  A. Klamt,  
 H. F. Schaefer III,  M. W. Schmidt,  C. D. Sherrill,  D. G. Truhlar,  
 A. Warshel,  X. Xu,  A. Aspuru-Guzik,  R. Baer,  A. T. Bell,  N. A. Besley,  
 J.-D. Chai,  A. Dreuw,  B. D. Dunietz,  T. R. Furlani,  S. R. Gwaltney,  
 C.-P. Hsu,  Y. Jung,  J. Kong,  D. S. Lambrecht,  W. Liang,  C. Ochsenfeld,  
 V. A. Rassolov,  L. V. Slipchenko,  J. E. Subotnik,  T. Van Voorhis,  
 J. M. Herbert,  A. I. Krylov,  P. M. W. Gill,  M. Head-Gordon

 Contributors to earlier versions of Q-Chem not listed above: 
 R. D. Adamson,  J. Baker,  E. F. C. Byrd,  A. K. Chakraborty,  C.-L. Cheng,  
 H. Dachsel,  R. J. Doerksen,  G. Hawkins,  A. Heyden,  S. Hirata,  
 G. Kedziora,  F. J. Keil,  C. Kelley,  P. P. Korambath,  W. Kurlancheek,  
 A. M. Lee,  M. S. Lee,  D. Liotard,  I. Lotan,  P. E. Maslen,  N. Nair,  
 D. Neuhauser,  R. Olson,  B. Peters,  J. Ritchie,  N. E. Schultz,  
 N. Shenvi,  A. C. Simmonett,  K. S. Thanthiriwatte,  Q. Wu,  W. Zhang

 Please cite Q-Chem as follows:
 Y. Shao et al., Mol. Phys. 113, 184-215 (2015)
 DOI: 10.1080/00268976.2014.952696

 Q-Chem 4.3.0 for Intel X86 EM64T Linux

 Parts of Q-Chem use Armadillo 5.200.1 (Boston Tea Smuggler).
 http://arma.sourceforge.net/

 Q-Chem begins on Fri Nov  6 16:30:45 2015  

Host: polonium20
0

     Scratch files written to /public/polonium20/scratch/tmp/plasserf.15015/SAVEDIR//

Checking the input file for inconsistencies... 	...done.

--------------------------------------------------------------
User input:
--------------------------------------------------------------
$molecule
 read coord.qchem
$end

$rem
jobtyp		sp
exchange	omegaB97
ecp		lanl2dz
basis		gen
mem_total	 64000
mem_static	1500
cis_n_roots	6
cis_singlets	true
cis_triplets	false
rpa		true
cis_ampl_print  1
print_orbitals  5000
molden_format   true
state_analysis	true
$end

$basis
   Ir
   lanl2dz
****
   C
   6-31G*
****
   N
   6-31G*
****
   H
   6-31G*
$end
--------------------------------------------------------------
 ----------------------------------------------------------------
             Standard Nuclear Orientation (Angstroms)
    I     Atom           X                Y                Z
 ----------------------------------------------------------------
    1      Ir     -0.0000004232     0.0000000051    -0.0210067683
    2      N      -0.9707419151    -1.5162385386     1.1004330703
    3      N       1.7984718046    -0.0825675368     1.1004335365
    4      C       0.5004741493     1.5913383387    -1.1012966867
    5      C      -1.6283810759    -0.3622448498    -1.1012970434
    6      C      -2.0824114040    -1.9292059360     0.5781128829
    7      C      -2.4826022067    -1.3246650395    -0.6441771861
    8      N      -0.8277317291     1.5988060973     1.1004330883
    9      C       1.1279062059    -1.2290934803    -1.1012965748
   10      C      -0.6295384288     2.7680232314     0.5781131195
   11      C       0.0941122865     2.8123268449    -0.6441767580
   12      C       2.7119482586    -0.8388172766     0.5781136928
   13      C       2.3884989664    -1.4876619134    -0.6441763607
   14      H      -1.8769715890     0.1300181143    -2.0424970865
   15      H      -3.3931097748    -1.6322965680    -1.1468373397
   16      H      -2.6707034296    -2.7081779342     1.0636927848
   17      H      -1.0099930194     3.6669894844     1.0636930532
   18      H       0.2829463009     3.7546695485    -1.1468367280
   19      H       1.0510852875     1.5604924866    -2.0424965934
   20      H       3.1101627763    -2.1223729722    -1.1468362372
   21      H       0.8258860589    -1.6905105980    -2.0424966250
   22      H       3.6807046274    -0.9588116479     1.0636938571
   23      H      -0.6907700456    -1.9574825232     1.9659431187
   24      H      -1.3498398091     1.5769679014     1.9659429999
   25      H       2.0406075754     0.3805146491     1.9659435766
 ----------------------------------------------------------------
 Molecular Point Group                 C1    NOp =  1
 Largest Abelian Subgroup              C1    NOp =  1
 Nuclear Repulsion Energy =   938.8130180101 hartrees
 There are       52 alpha and       52 beta electrons

 Q-Chem warning in module /user/plasserf/programs/QChem/qchem_svn.trunk/forms1/BasisType.C, line 1419:

 Setting pure/cartesian flag to 2111 for general basis


 Requested basis set is non-standard
 There are 80 shells and 214 basis functions

 Total QAlloc Memory Limit  64000 MB
 Mega-Array Size      1467 MB
 MEM_STATIC part      1500 MB
 A cutoff of  1.0D-11 yielded   2709 shell pairs
 There are     20478 function pairs (     23118 Cartesian)
 
 -------------------------------------------------------
 OpenMP Integral Computing Module                       
 Release: version 1.0, May 2013, Q-Chem Inc. Pittsburgh 
 -------------------------------------------------------
 Integral Job Info:
 Integral job number is                      11
 Integral operator is                         1
 short-range coefficients                     0
 long-range coefficients              100000000
 Omega coefficients                         400
 if combine SR and LR in K                    1
 Integral screening is                        0
 Integral computing path is                   2
 max size of driver memory is            800000
 size of driver memory is                593474
 size of scratch memory is              3456544
 max col of scratch BK array               1296
 max len of scratch array in speh3          155
 max len of scratch index in speh4           18
 max int batch size is                      520
 min int batch size is                       52
 fixed nKL is                                52
 max L of basis functions is                  2
 order of int derivative is                   0
 number of shells is                         80
 number of basis is                         228
 number of cartesian basis is               228
 number of contracted shell pairs          2709
 number of primitive shell pairs           9761
 maxK2 (contraction) of shell pair           36
 max number of K2 of shell pair               1
 max number of CS2 of shell pair            321
 max number of PS2 of shell pair           1116
 mem total for path MDJ                   54904
 -------------------------------------------------------
 Requested basis set is non-standard
 Compound shells will be simplified
Warning: Basis Set and ECP do not match
 There are 104 shells and 214 basis functions
 A cutoff of  1.0D-11 yielded   4746 shell pairs
 There are     20406 function pairs (     23046 Cartesian)
 Smallest overlap matrix eigenvalue = 1.29E-03

 Scale SEOQF with 1.000000e-01/1.000000e-01/1.000000e-01

 Standard Electronic Orientation quadrupole field applied
 Nucleus-field energy     =     0.0000000177 hartrees
 Guess MOs from core Hamiltonian diagonalization
 Long-range K will be added via erf
 Coulomb attenuation parameter = 0.4 bohr**(-1)
 A restricted Kohn-Sham SCF calculation will be
 performed using Pulay DIIS extrapolation
 Exchange:  wB97 + LR-HF      Correlation:  wB97
 Using SG-1 standard quadrature grid
 SCF converges when DIIS error is below 1.0E-08
 using 2 threads for integral computing 
 using 2 threads for integral computing 
 -------------------------------------------------------
 OpenMP BLAS3 based DFT computing Module                
 Release: version 1.0, May 2013, Q-Chem Inc. Pittsburgh 
 -------------------------------------------------------
 ---------------------------------------
  Cycle       Energy         DIIS Error
 ---------------------------------------
    1    -508.0176867012      9.19E-02
    2    -367.5498364938      1.05E-01
    3    -591.2433183454      5.30E-02
    4    -611.9070801670      3.23E-02
    5    -617.1997452509      1.70E-02
    6    -618.5318489655      8.42E-03
    7    -618.9204235393      1.22E-03
    8    -618.9347982110      3.94E-04
    9    -618.9370850740      3.74E-04
   10    -618.9381455133      2.16E-04
   11    -618.9384155764      8.65E-05
   12    -618.9384620068      1.83E-05
   13    -618.9384650223      5.81E-06
   14    -618.9384656343      2.66E-06
   15    -618.9384657820      6.93E-07
   16    -618.9384657930      3.69E-07
   17    -618.9384657950      1.04E-07
   18    -618.9384657955      4.59E-08
   19    -618.9384657954      2.06E-08
   20    -618.9384657961      4.31E-09 Convergence criterion met
 ---------------------------------------
 SCF time:  CPU 215.18 s  wall 131.99 s
 SCF   energy in the final basis set = -618.9384657961
 Total energy in the final basis set = -618.9384657961
 Direct TDDFT/TDA calculation will be performed
 Exchange:  wB97 + LR-HF      Correlation:  wB97
 Using SG-1 standard quadrature grid
 Singlet excitation energies requested
 CIS energy converged when residual is below 10e- 6
 ---------------------------------------------------
 Iter    Rts Conv    Rts Left    Ttl Dev     Max Dev
 ---------------------------------------------------
   1         0           6      0.004748    0.001167
   2         0           6      0.001991    0.000352
   3         0           6      0.000862    0.000220
   4         0           6      0.000486    0.000143
   5         0           6      0.000450    0.000145
   6         0           6      0.000354    0.000137
   7         0           6      0.000489    0.000370
   8         0           6      0.000210    0.000158
   9         0           6      0.000089    0.000065
  10         2           4      0.000040    0.000029
  11         3           3      0.000016    0.000011
  12         5           1      0.000008    0.000006
  13         5           1      0.000005    0.000003
  14         5           1      0.000004    0.000002
  15         6           0      0.000003    0.000001    Roots Converged
 ---------------------------------------------------
 
 
 ---------------------------------------------------
         TDDFT/TDA Excitation Energies              
 ---------------------------------------------------

 Excited state   1: excitation energy (eV) =    4.0482
    Total energy for state   1:   -618.789696745634
    Multiplicity: Singlet 
    Trans. Mom.:  0.0035 X  -0.0031 Y  -0.5751 Z
    Strength   :  0.0328
    D( 36) --> V(  7) amplitude = -0.0177
    D( 37) --> V(  8) amplitude =  0.0176
    D( 41) --> V(  2) amplitude = -0.0234
    D( 41) --> V(  8) amplitude =  0.0167
    D( 42) --> V(  3) amplitude =  0.0234
    D( 42) --> V(  7) amplitude =  0.0167
    D( 43) --> V(  1) amplitude =  0.0428
    D( 44) --> V(  2) amplitude = -0.0148
    D( 44) --> V(  3) amplitude = -0.0271
    D( 44) --> V(  8) amplitude =  0.0241
    D( 45) --> V(  2) amplitude = -0.0271
    D( 45) --> V(  3) amplitude =  0.0149
    D( 45) --> V(  7) amplitude =  0.0242
    D( 46) --> V(  1) amplitude =  0.1761
    D( 46) --> V(  4) amplitude = -0.0196
    D( 46) --> V(  9) amplitude = -0.0188
    D( 46) --> V( 12) amplitude =  0.0252
    D( 46) --> V( 25) amplitude =  0.0147
    D( 47) --> V(  1) amplitude =  0.0306
    D( 48) --> V(  2) amplitude =  0.0199
    D( 48) --> V(  3) amplitude =  0.0743
    D( 48) --> V( 11) amplitude = -0.0151
    D( 49) --> V(  2) amplitude = -0.0752
    D( 49) --> V(  3) amplitude =  0.0198
    D( 49) --> V( 10) amplitude =  0.0152
    D( 50) --> V(  2) amplitude =  0.1602
    D( 50) --> V(  3) amplitude = -0.0429
    D( 50) --> V(  5) amplitude =  0.0229
    D( 50) --> V(  7) amplitude = -0.0161
    D( 51) --> V(  2) amplitude =  0.0435
    D( 51) --> V(  3) amplitude =  0.1585
    D( 51) --> V(  6) amplitude = -0.0226
    D( 51) --> V(  8) amplitude = -0.0160
    D( 52) --> V(  1) amplitude =  0.9333
    D( 52) --> V(  4) amplitude = -0.0870
    D( 52) --> V( 12) amplitude =  0.0281
    D( 52) --> V( 25) amplitude =  0.0300

 Excited state   2: excitation energy (eV) =    4.1023
    Total energy for state   2:   -618.787707221565
    Multiplicity: Singlet 
    Trans. Mom.: -0.1820 X   0.5441 Y  -0.0044 Z
    Strength   :  0.0331
    D( 32) --> V(  7) amplitude = -0.0162
    D( 35) --> V(  2) amplitude =  0.0219
    D( 36) --> V(  1) amplitude =  0.0242
    D( 43) --> V(  2) amplitude =  0.0417
    D( 44) --> V(  7) amplitude =  0.0224
    D( 45) --> V(  1) amplitude = -0.0242
    D( 45) --> V(  8) amplitude =  0.0225
    D( 46) --> V(  2) amplitude =  0.1760
    D( 46) --> V(  3) amplitude =  0.0202
    D( 46) --> V(  5) amplitude =  0.0323
    D( 46) --> V(  7) amplitude =  0.0170
    D( 46) --> V(  8) amplitude = -0.0401
    D( 46) --> V( 10) amplitude =  0.0321
    D( 47) --> V(  2) amplitude =  0.0584
    D( 47) --> V(  3) amplitude =  0.0351
    D( 47) --> V(  8) amplitude = -0.0363
    D( 48) --> V(  2) amplitude =  0.0199
    D( 48) --> V(  3) amplitude =  0.0525
    D( 49) --> V(  1) amplitude = -0.0226
    D( 49) --> V(  2) amplitude =  0.0513
    D( 49) --> V(  3) amplitude = -0.0197
    D( 49) --> V( 12) amplitude =  0.0197
    D( 50) --> V(  1) amplitude =  0.2226
    D( 50) --> V(  2) amplitude = -0.1161
    D( 50) --> V(  4) amplitude = -0.0237
    D( 50) --> V(  5) amplitude = -0.0147
    D( 51) --> V(  1) amplitude =  0.2313
    D( 51) --> V(  3) amplitude =  0.1193
    D( 51) --> V(  4) amplitude = -0.0218
    D( 51) --> V(  6) amplitude = -0.0151
    D( 51) --> V( 12) amplitude =  0.0173
    D( 52) --> V(  2) amplitude =  0.8720
    D( 52) --> V(  3) amplitude =  0.1248
    D( 52) --> V(  5) amplitude =  0.1056
    D( 52) --> V(  7) amplitude =  0.0365
    D( 52) --> V(  8) amplitude = -0.0957
    D( 52) --> V( 10) amplitude =  0.0347
    D( 52) --> V( 14) amplitude = -0.0293
    D( 52) --> V( 19) amplitude = -0.0161
    D( 52) --> V( 29) amplitude =  0.0155
    D( 52) --> V( 32) amplitude =  0.0153
    D( 52) --> V( 37) amplitude = -0.0179

 Excited state   3: excitation energy (eV) =    4.1029
    Total energy for state   3:   -618.787686719466
    Multiplicity: Singlet 
    Trans. Mom.:  0.5437 X   0.1827 Y   0.0014 Z
    Strength   :  0.0331
    D( 32) --> V(  8) amplitude = -0.0161
    D( 35) --> V(  3) amplitude =  0.0219
    D( 37) --> V(  1) amplitude = -0.0242
    D( 43) --> V(  3) amplitude =  0.0416
    D( 44) --> V(  1) amplitude = -0.0242
    D( 44) --> V(  8) amplitude = -0.0225
    D( 45) --> V(  7) amplitude =  0.0224
    D( 46) --> V(  2) amplitude = -0.0202
    D( 46) --> V(  3) amplitude =  0.1760
    D( 46) --> V(  6) amplitude = -0.0323
    D( 46) --> V(  7) amplitude =  0.0401
    D( 46) --> V(  8) amplitude =  0.0170
    D( 46) --> V( 11) amplitude =  0.0321
    D( 47) --> V(  2) amplitude = -0.0353
    D( 47) --> V(  3) amplitude =  0.0584
    D( 47) --> V(  7) amplitude =  0.0364
    D( 48) --> V(  1) amplitude =  0.0225
    D( 48) --> V(  2) amplitude =  0.0518
    D( 48) --> V(  3) amplitude = -0.0201
    D( 48) --> V( 12) amplitude = -0.0198
    D( 49) --> V(  2) amplitude = -0.0196
    D( 49) --> V(  3) amplitude = -0.0519
    D( 50) --> V(  1) amplitude = -0.2315
    D( 50) --> V(  3) amplitude =  0.1188
    D( 50) --> V(  4) amplitude =  0.0219
    D( 50) --> V(  6) amplitude = -0.0150
    D( 50) --> V( 12) amplitude = -0.0174
    D( 51) --> V(  1) amplitude =  0.2224
    D( 51) --> V(  2) amplitude =  0.1184
    D( 51) --> V(  3) amplitude = -0.0155
    D( 51) --> V(  4) amplitude = -0.0238
    D( 51) --> V(  5) amplitude =  0.0149
    D( 52) --> V(  2) amplitude = -0.1244
    D( 52) --> V(  3) amplitude =  0.8718
    D( 52) --> V(  6) amplitude = -0.1054
    D( 52) --> V(  7) amplitude =  0.0958
    D( 52) --> V(  8) amplitude =  0.0365
    D( 52) --> V( 10) amplitude = -0.0142
    D( 52) --> V( 11) amplitude =  0.0348
    D( 52) --> V( 13) amplitude = -0.0293
    D( 52) --> V( 18) amplitude = -0.0161
    D( 52) --> V( 30) amplitude =  0.0155
    D( 52) --> V( 33) amplitude =  0.0152
    D( 52) --> V( 38) amplitude =  0.0179

 Excited state   4: excitation energy (eV) =    4.4514
    Total energy for state   4:   -618.774878090764
    Multiplicity: Singlet 
    Trans. Mom.: -0.6380 X   0.2315 Y   0.0042 Z
    Strength   :  0.0502
    D( 36) --> V(  1) amplitude =  0.0357
    D( 38) --> V(  1) amplitude = -0.0181
    D( 38) --> V(  3) amplitude =  0.0264
    D( 39) --> V(  1) amplitude =  0.0426
    D( 39) --> V(  2) amplitude = -0.0278
    D( 41) --> V(  1) amplitude =  0.0283
    D( 41) --> V(  2) amplitude = -0.0284
    D( 42) --> V(  1) amplitude =  0.0236
    D( 42) --> V(  3) amplitude = -0.0278
    D( 43) --> V(  2) amplitude =  0.0205
    D( 44) --> V(  1) amplitude = -0.0503
    D( 44) --> V(  3) amplitude =  0.0242
    D( 44) --> V(  7) amplitude =  0.0207
    D( 45) --> V(  1) amplitude =  0.0298
    D( 45) --> V(  2) amplitude = -0.0253
    D( 45) --> V(  8) amplitude =  0.0211
    D( 46) --> V(  2) amplitude = -0.1405
    D( 46) --> V(  3) amplitude =  0.1043
    D( 46) --> V(  5) amplitude = -0.0190
    D( 46) --> V(  6) amplitude = -0.0270
    D( 46) --> V(  8) amplitude =  0.0227
    D( 47) --> V(  2) amplitude =  0.0242
    D( 47) --> V(  3) amplitude =  0.0161
    D( 47) --> V(  8) amplitude = -0.0294
    D( 47) --> V( 10) amplitude =  0.0170
    D( 48) --> V(  1) amplitude =  0.1365
    D( 48) --> V(  2) amplitude = -0.0389
    D( 48) --> V(  3) amplitude = -0.0191
    D( 48) --> V(  4) amplitude = -0.0166
    D( 48) --> V( 10) amplitude =  0.0154
    D( 48) --> V( 12) amplitude =  0.0149
    D( 49) --> V(  1) amplitude =  0.0892
    D( 49) --> V(  2) amplitude = -0.0215
    D( 49) --> V(  3) amplitude =  0.0361
    D( 49) --> V(  4) amplitude = -0.0173
    D( 49) --> V(  9) amplitude = -0.0160
    D( 49) --> V( 11) amplitude = -0.0157
    D( 49) --> V( 12) amplitude =  0.0249
    D( 50) --> V(  1) amplitude =  0.7837
    D( 50) --> V(  2) amplitude = -0.2784
    D( 50) --> V(  3) amplitude = -0.0890
    D( 50) --> V(  4) amplitude = -0.0775
    D( 50) --> V(  5) amplitude = -0.0354
    D( 50) --> V(  7) amplitude =  0.0217
    D( 50) --> V(  8) amplitude =  0.0235
    D( 50) --> V(  9) amplitude = -0.0192
    D( 50) --> V( 12) amplitude =  0.0423
    D( 50) --> V( 14) amplitude =  0.0151
    D( 50) --> V( 25) amplitude =  0.0160
    D( 51) --> V(  1) amplitude = -0.1044
    D( 51) --> V(  2) amplitude = -0.0898
    D( 51) --> V(  3) amplitude =  0.2618
    D( 51) --> V(  6) amplitude = -0.0334
    D( 51) --> V(  7) amplitude =  0.0216
    D( 51) --> V(  8) amplitude = -0.0216
    D( 51) --> V( 13) amplitude = -0.0144
    D( 52) --> V(  2) amplitude = -0.2406
    D( 52) --> V(  3) amplitude =  0.2072
    D( 52) --> V(  6) amplitude = -0.0285
    D( 52) --> V(  8) amplitude =  0.0664
    D( 52) --> V( 10) amplitude = -0.0479
    D( 52) --> V( 11) amplitude =  0.0276

 Excited state   5: excitation energy (eV) =    4.4517
    Total energy for state   5:   -618.774868380652
    Multiplicity: Singlet 
    Trans. Mom.:  0.2311 X   0.6389 Y   0.0048 Z
    Strength   :  0.0503
    D( 37) --> V(  1) amplitude = -0.0357
    D( 38) --> V(  1) amplitude =  0.0425
    D( 38) --> V(  2) amplitude =  0.0273
    D( 39) --> V(  1) amplitude =  0.0181
    D( 39) --> V(  3) amplitude =  0.0269
    D( 41) --> V(  1) amplitude =  0.0234
    D( 41) --> V(  3) amplitude =  0.0280
    D( 42) --> V(  1) amplitude = -0.0281
    D( 42) --> V(  2) amplitude = -0.0283
    D( 43) --> V(  3) amplitude =  0.0204
    D( 44) --> V(  1) amplitude =  0.0298
    D( 44) --> V(  2) amplitude =  0.0257
    D( 44) --> V(  8) amplitude = -0.0212
    D( 45) --> V(  1) amplitude =  0.0503
    D( 45) --> V(  3) amplitude =  0.0240
    D( 45) --> V(  7) amplitude =  0.0206
    D( 46) --> V(  2) amplitude = -0.1043
    D( 46) --> V(  3) amplitude = -0.1405
    D( 46) --> V(  5) amplitude = -0.0270
    D( 46) --> V(  6) amplitude =  0.0189
    D( 46) --> V(  7) amplitude = -0.0227
    D( 47) --> V(  2) amplitude = -0.0158
    D( 47) --> V(  3) amplitude =  0.0240
    D( 47) --> V(  7) amplitude =  0.0296
    D( 47) --> V( 11) amplitude =  0.0170
    D( 48) --> V(  1) amplitude = -0.0893
    D( 48) --> V(  2) amplitude = -0.0218
    D( 48) --> V(  3) amplitude =  0.0387
    D( 48) --> V(  4) amplitude =  0.0174
    D( 48) --> V(  9) amplitude =  0.0159
    D( 48) --> V( 11) amplitude = -0.0152
    D( 48) --> V( 12) amplitude = -0.0251
    D( 49) --> V(  1) amplitude =  0.1365
    D( 49) --> V(  2) amplitude =  0.0366
    D( 49) --> V(  3) amplitude =  0.0185
    D( 49) --> V(  4) amplitude = -0.0166
    D( 49) --> V( 10) amplitude = -0.0160
    D( 49) --> V( 12) amplitude =  0.0148
    D( 50) --> V(  1) amplitude =  0.1042
    D( 50) --> V(  2) amplitude = -0.0979
    D( 50) --> V(  3) amplitude =  0.2705
    D( 50) --> V(  6) amplitude = -0.0346
    D( 50) --> V(  7) amplitude =  0.0225
    D( 50) --> V(  8) amplitude = -0.0206
    D( 50) --> V( 13) amplitude = -0.0148
    D( 51) --> V(  1) amplitude =  0.7834
    D( 51) --> V(  2) amplitude =  0.2709
    D( 51) --> V(  3) amplitude =  0.0821
    D( 51) --> V(  4) amplitude = -0.0776
    D( 51) --> V(  5) amplitude =  0.0342
    D( 51) --> V(  7) amplitude = -0.0224
    D( 51) --> V(  8) amplitude = -0.0223
    D( 51) --> V(  9) amplitude = -0.0193
    D( 51) --> V( 12) amplitude =  0.0425
    D( 51) --> V( 14) amplitude = -0.0148
    D( 51) --> V( 25) amplitude =  0.0160
    D( 52) --> V(  2) amplitude = -0.2063
    D( 52) --> V(  3) amplitude = -0.2408
    D( 52) --> V(  5) amplitude = -0.0284
    D( 52) --> V(  7) amplitude = -0.0666
    D( 52) --> V( 10) amplitude = -0.0276
    D( 52) --> V( 11) amplitude = -0.0478

 Excited state   6: excitation energy (eV) =    4.4636
    Total energy for state   6:   -618.774432621605
    Multiplicity: Singlet 
    Trans. Mom.: -0.0059 X   0.0114 Y  -0.3485 Z
    Strength   :  0.0133
    D( 36) --> V(  2) amplitude =  0.0252
    D( 37) --> V(  3) amplitude = -0.0252
    D( 38) --> V(  3) amplitude =  0.0553
    D( 39) --> V(  2) amplitude =  0.0545
    D( 41) --> V(  2) amplitude =  0.0211
    D( 41) --> V(  8) amplitude =  0.0158
    D( 42) --> V(  3) amplitude = -0.0217
    D( 42) --> V(  7) amplitude =  0.0159
    D( 43) --> V(  1) amplitude =  0.0382
    D( 44) --> V(  2) amplitude = -0.0642
    D( 44) --> V(  3) amplitude =  0.0409
    D( 44) --> V(  8) amplitude =  0.0217
    D( 45) --> V(  2) amplitude =  0.0404
    D( 45) --> V(  3) amplitude =  0.0650
    D( 45) --> V(  7) amplitude =  0.0222
    D( 46) --> V(  1) amplitude = -0.1413
    D( 46) --> V(  4) amplitude =  0.0235
    D( 48) --> V(  2) amplitude =  0.1212
    D( 48) --> V(  3) amplitude = -0.0859
    D( 48) --> V(  5) amplitude =  0.0174
    D( 48) --> V(  6) amplitude =  0.0221
    D( 48) --> V(  7) amplitude = -0.0190
    D( 48) --> V( 11) amplitude = -0.0225
    D( 49) --> V(  2) amplitude =  0.0863
    D( 49) --> V(  3) amplitude =  0.1228
    D( 49) --> V(  5) amplitude =  0.0222
    D( 49) --> V(  6) amplitude = -0.0176
    D( 49) --> V(  8) amplitude = -0.0193
    D( 49) --> V( 10) amplitude =  0.0218
    D( 50) --> V(  2) amplitude =  0.6401
    D( 50) --> V(  3) amplitude = -0.0254
    D( 50) --> V(  5) amplitude =  0.0715
    D( 50) --> V(  6) amplitude =  0.0187
    D( 50) --> V(  8) amplitude = -0.0729
    D( 50) --> V( 10) amplitude =  0.0331
    D( 50) --> V( 14) amplitude = -0.0253
    D( 51) --> V(  2) amplitude =  0.0295
    D( 51) --> V(  3) amplitude =  0.6498
    D( 51) --> V(  5) amplitude =  0.0193
    D( 51) --> V(  6) amplitude = -0.0726
    D( 51) --> V(  7) amplitude =  0.0730
    D( 51) --> V( 11) amplitude =  0.0334
    D( 51) --> V( 13) amplitude = -0.0256
    D( 52) --> V(  1) amplitude = -0.1928
    D( 52) --> V(  4) amplitude =  0.0203
    D( 52) --> V(  9) amplitude =  0.0226
    D( 52) --> V( 12) amplitude = -0.0439
 
 ---------------------------------------------------
 Direct TDDFT calculation will be performed
 Exchange:  wB97 + LR-HF      Correlation:  wB97
 Using SG-1 standard quadrature grid
 ---------------------------------------------------
 Iter    Rts Conv    Rts Left    Ttl Dev     Max Dev
 ---------------------------------------------------
   1         0           6      0.000040    0.000009
   2         0           6      0.000349    0.000075
   3         0           6      0.000246    0.000060
   4         0           6      0.000145    0.000029
   5         0           6      0.000095    0.000018
   6         0           6      0.000061    0.000014
   7         0           6      0.000028    0.000007
   8         0           6      0.000013    0.000004
   9         3           3      0.000008    0.000003
  10         4           2      0.000005    0.000001
  11         6           0      0.000003    0.000001    Roots Converged
 ---------------------------------------------------
 
 
 ---------------------------------------------------
             TDDFT Excitation Energies              
 ---------------------------------------------------

 Excited state   1: excitation energy (eV) =    3.9478
    Total energy for state   1:   -618.793385672027
    Multiplicity: Singlet 
    Trans. Mom.:  0.0037 X  -0.0025 Y  -0.5634 Z
    Strength   :  0.0307
    X: D( 36) --> V(  7) amplitude = -0.0165
    X: D( 37) --> V(  8) amplitude =  0.0164
    X: D( 41) --> V(  2) amplitude = -0.0195
    X: D( 41) --> V(  8) amplitude =  0.0163
    X: D( 42) --> V(  3) amplitude =  0.0195
    X: D( 42) --> V(  7) amplitude =  0.0163
    X: D( 43) --> V(  1) amplitude =  0.0380
    X: D( 44) --> V(  3) amplitude = -0.0272
    X: D( 44) --> V(  8) amplitude =  0.0213
    X: D( 45) --> V(  2) amplitude = -0.0272
    X: D( 45) --> V(  7) amplitude =  0.0214
    X: D( 46) --> V(  1) amplitude =  0.1206
    Y: D( 46) --> V(  1) amplitude =  0.0155
    X: D( 46) --> V(  9) amplitude = -0.0163
    X: D( 46) --> V( 12) amplitude =  0.0218
    X: D( 46) --> V( 25) amplitude =  0.0151
    X: D( 47) --> V(  1) amplitude =  0.0263
    X: D( 48) --> V(  2) amplitude =  0.0199
    X: D( 48) --> V(  3) amplitude =  0.0922
    Y: D( 48) --> V(  3) amplitude = -0.0167
    X: D( 48) --> V(  6) amplitude = -0.0143
    X: D( 48) --> V( 11) amplitude = -0.0159
    X: D( 49) --> V(  2) amplitude = -0.0932
    Y: D( 49) --> V(  2) amplitude =  0.0169
    X: D( 49) --> V(  3) amplitude =  0.0198
    X: D( 49) --> V(  5) amplitude = -0.0144
    X: D( 49) --> V( 10) amplitude =  0.0160
    X: D( 50) --> V(  2) amplitude =  0.2332
    Y: D( 50) --> V(  2) amplitude = -0.0163
    X: D( 50) --> V(  3) amplitude = -0.0967
    X: D( 50) --> V(  5) amplitude =  0.0315
    X: D( 50) --> V(  6) amplitude =  0.0176
    X: D( 50) --> V(  7) amplitude = -0.0155
    X: D( 51) --> V(  2) amplitude =  0.0982
    X: D( 51) --> V(  3) amplitude =  0.2310
    Y: D( 51) --> V(  3) amplitude = -0.0161
    X: D( 51) --> V(  5) amplitude =  0.0177
    X: D( 51) --> V(  6) amplitude = -0.0311
    X: D( 51) --> V(  8) amplitude = -0.0153
    X: D( 52) --> V(  1) amplitude =  0.9041
    Y: D( 52) --> V(  1) amplitude = -0.0229
    X: D( 52) --> V(  4) amplitude = -0.0890
    X: D( 52) --> V( 12) amplitude =  0.0236
    X: D( 52) --> V( 25) amplitude =  0.0257

 Excited state   2: excitation energy (eV) =    3.9994
    Total energy for state   2:   -618.791492130628
    Multiplicity: Singlet 
    Trans. Mom.: -0.1750 X   0.5728 Y  -0.0045 Z
    Strength   :  0.0352
    X: D( 32) --> V(  7) amplitude = -0.0142
    X: D( 35) --> V(  2) amplitude =  0.0189
    X: D( 36) --> V(  1) amplitude =  0.0223
    X: D( 43) --> V(  2) amplitude =  0.0365
    X: D( 44) --> V(  7) amplitude =  0.0218
    X: D( 45) --> V(  1) amplitude = -0.0241
    X: D( 45) --> V(  8) amplitude =  0.0218
    X: D( 46) --> V(  2) amplitude =  0.1214
    X: D( 46) --> V(  5) amplitude =  0.0216
    X: D( 46) --> V(  8) amplitude = -0.0370
    X: D( 46) --> V( 10) amplitude =  0.0276
    X: D( 47) --> V(  2) amplitude =  0.0501
    X: D( 47) --> V(  3) amplitude =  0.0319
    X: D( 47) --> V(  8) amplitude = -0.0335
    X: D( 48) --> V(  1) amplitude =  0.0164
    X: D( 48) --> V(  2) amplitude =  0.0303
    X: D( 48) --> V(  3) amplitude =  0.0641
    X: D( 49) --> V(  1) amplitude = -0.0487
    Y: D( 49) --> V(  1) amplitude =  0.0234
    X: D( 49) --> V(  2) amplitude =  0.0627
    X: D( 49) --> V(  3) amplitude = -0.0301
    X: D( 49) --> V( 12) amplitude =  0.0196
    X: D( 50) --> V(  1) amplitude =  0.2957
    X: D( 50) --> V(  2) amplitude = -0.1730
    Y: D( 50) --> V(  2) amplitude =  0.0149
    X: D( 50) --> V(  4) amplitude = -0.0329
    X: D( 50) --> V(  5) amplitude = -0.0243
    X: D( 51) --> V(  1) amplitude =  0.2859
    X: D( 51) --> V(  3) amplitude =  0.1772
    Y: D( 51) --> V(  3) amplitude = -0.0152
    X: D( 51) --> V(  4) amplitude = -0.0296
    X: D( 51) --> V(  6) amplitude = -0.0248
    X: D( 51) --> V( 12) amplitude =  0.0166
    X: D( 52) --> V(  2) amplitude =  0.8280
    Y: D( 52) --> V(  2) amplitude = -0.0242
    X: D( 52) --> V(  3) amplitude =  0.1237
    X: D( 52) --> V(  5) amplitude =  0.1064
    X: D( 52) --> V(  7) amplitude =  0.0291
    X: D( 52) --> V(  8) amplitude = -0.0790
    X: D( 52) --> V( 10) amplitude =  0.0280
    X: D( 52) --> V( 14) amplitude = -0.0272
    X: D( 52) --> V( 19) amplitude = -0.0145
    X: D( 52) --> V( 37) amplitude = -0.0169

 Excited state   3: excitation energy (eV) =    4.0000
    Total energy for state   3:   -618.791468909864
    Multiplicity: Singlet 
    Trans. Mom.:  0.5720 X   0.1761 Y   0.0022 Z
    Strength   :  0.0351
    X: D( 35) --> V(  3) amplitude =  0.0189
    X: D( 37) --> V(  1) amplitude = -0.0223
    X: D( 43) --> V(  3) amplitude =  0.0365
    X: D( 44) --> V(  1) amplitude = -0.0241
    X: D( 44) --> V(  8) amplitude = -0.0219
    X: D( 45) --> V(  7) amplitude =  0.0217
    X: D( 46) --> V(  3) amplitude =  0.1216
    X: D( 46) --> V(  6) amplitude = -0.0216
    X: D( 46) --> V(  7) amplitude =  0.0370
    X: D( 46) --> V( 11) amplitude =  0.0276
    X: D( 47) --> V(  2) amplitude = -0.0321
    X: D( 47) --> V(  3) amplitude =  0.0501
    X: D( 47) --> V(  7) amplitude =  0.0336
    X: D( 48) --> V(  1) amplitude =  0.0485
    Y: D( 48) --> V(  1) amplitude = -0.0232
    X: D( 48) --> V(  2) amplitude =  0.0634
    X: D( 48) --> V(  3) amplitude = -0.0306
    X: D( 48) --> V( 12) amplitude = -0.0197
    X: D( 49) --> V(  1) amplitude =  0.0166
    X: D( 49) --> V(  2) amplitude = -0.0298
    X: D( 49) --> V(  3) amplitude = -0.0635
    X: D( 50) --> V(  1) amplitude = -0.2855
    X: D( 50) --> V(  3) amplitude =  0.1764
    Y: D( 50) --> V(  3) amplitude = -0.0151
    X: D( 50) --> V(  4) amplitude =  0.0296
    X: D( 50) --> V(  6) amplitude = -0.0247
    X: D( 50) --> V( 12) amplitude = -0.0167
    X: D( 51) --> V(  1) amplitude =  0.2952
    X: D( 51) --> V(  2) amplitude =  0.1754
    Y: D( 51) --> V(  2) amplitude = -0.0149
    X: D( 51) --> V(  4) amplitude = -0.0329
    X: D( 51) --> V(  5) amplitude =  0.0244
    X: D( 52) --> V(  2) amplitude = -0.1233
    X: D( 52) --> V(  3) amplitude =  0.8280
    Y: D( 52) --> V(  3) amplitude = -0.0242
    X: D( 52) --> V(  6) amplitude = -0.1062
    X: D( 52) --> V(  7) amplitude =  0.0792
    X: D( 52) --> V(  8) amplitude =  0.0291
    X: D( 52) --> V( 11) amplitude =  0.0281
    X: D( 52) --> V( 13) amplitude = -0.0272
    X: D( 52) --> V( 18) amplitude = -0.0146
    X: D( 52) --> V( 38) amplitude =  0.0169

 Excited state   4: excitation energy (eV) =    4.4084
    Total energy for state   4:   -618.776459919259
    Multiplicity: Singlet 
    Trans. Mom.:  0.4056 X   0.4543 Y   0.0033 Z
    Strength   :  0.0401
    X: D( 37) --> V(  1) amplitude = -0.0304
    X: D( 38) --> V(  1) amplitude =  0.0429
    X: D( 38) --> V(  2) amplitude =  0.0271
    X: D( 39) --> V(  3) amplitude =  0.0269
    X: D( 41) --> V(  2) amplitude =  0.0151
    X: D( 41) --> V(  3) amplitude =  0.0243
    X: D( 42) --> V(  1) amplitude = -0.0338
    X: D( 42) --> V(  2) amplitude = -0.0245
    X: D( 42) --> V(  3) amplitude =  0.0158
    X: D( 44) --> V(  1) amplitude =  0.0479
    X: D( 44) --> V(  2) amplitude =  0.0189
    X: D( 44) --> V(  8) amplitude = -0.0174
    X: D( 45) --> V(  1) amplitude =  0.0324
    X: D( 45) --> V(  3) amplitude =  0.0175
    X: D( 45) --> V(  7) amplitude =  0.0170
    X: D( 46) --> V(  2) amplitude = -0.0494
    X: D( 46) --> V(  3) amplitude = -0.2069
    X: D( 46) --> V(  5) amplitude = -0.0206
    X: D( 46) --> V(  6) amplitude =  0.0345
    X: D( 46) --> V(  7) amplitude = -0.0279
    X: D( 46) --> V( 11) amplitude = -0.0157
    X: D( 47) --> V(  2) amplitude = -0.0231
    X: D( 47) --> V(  7) amplitude =  0.0212
    X: D( 47) --> V( 11) amplitude =  0.0170
    X: D( 48) --> V(  1) amplitude = -0.1224
    X: D( 48) --> V(  3) amplitude =  0.0279
    X: D( 48) --> V(  4) amplitude =  0.0192
    X: D( 48) --> V(  9) amplitude =  0.0162
    X: D( 48) --> V( 12) amplitude = -0.0250
    X: D( 49) --> V(  1) amplitude =  0.0837
    X: D( 49) --> V(  2) amplitude =  0.0263
    X: D( 50) --> V(  1) amplitude = -0.1964
    X: D( 50) --> V(  2) amplitude = -0.0312
    X: D( 50) --> V(  3) amplitude =  0.2637
    X: D( 50) --> V(  4) amplitude =  0.0215
    X: D( 50) --> V(  6) amplitude = -0.0345
    X: D( 50) --> V(  8) amplitude = -0.0210
    X: D( 50) --> V(  9) amplitude =  0.0162
    X: D( 51) --> V(  1) amplitude =  0.7251
    X: D( 51) --> V(  2) amplitude =  0.2633
    X: D( 51) --> V(  3) amplitude =  0.0177
    X: D( 51) --> V(  4) amplitude = -0.0730
    X: D( 51) --> V(  5) amplitude =  0.0339
    X: D( 51) --> V(  7) amplitude = -0.0222
    X: D( 51) --> V( 12) amplitude =  0.0382
    X: D( 51) --> V( 25) amplitude =  0.0154
    X: D( 52) --> V(  2) amplitude = -0.1132
    X: D( 52) --> V(  3) amplitude = -0.4078
    X: D( 52) --> V(  5) amplitude = -0.0247
    X: D( 52) --> V(  6) amplitude =  0.0332
    X: D( 52) --> V(  7) amplitude = -0.0837
    X: D( 52) --> V(  8) amplitude = -0.0199
    X: D( 52) --> V( 11) amplitude = -0.0578
    X: D( 52) --> V( 13) amplitude =  0.0154

 Excited state   5: excitation energy (eV) =    4.4097
    Total energy for state   5:   -618.776412815562
    Multiplicity: Singlet 
    Trans. Mom.: -0.4552 X   0.4093 Y   0.0029 Z
    Strength   :  0.0405
    X: D( 36) --> V(  1) amplitude =  0.0304
    X: D( 38) --> V(  3) amplitude =  0.0263
    X: D( 39) --> V(  1) amplitude =  0.0430
    X: D( 39) --> V(  2) amplitude = -0.0276
    X: D( 41) --> V(  1) amplitude =  0.0337
    X: D( 41) --> V(  2) amplitude = -0.0245
    X: D( 41) --> V(  3) amplitude =  0.0154
    X: D( 42) --> V(  2) amplitude = -0.0156
    X: D( 42) --> V(  3) amplitude = -0.0239
    X: D( 44) --> V(  1) amplitude = -0.0324
    X: D( 44) --> V(  3) amplitude =  0.0178
    X: D( 44) --> V(  7) amplitude =  0.0170
    X: D( 45) --> V(  1) amplitude =  0.0478
    X: D( 45) --> V(  2) amplitude = -0.0187
    X: D( 45) --> V(  8) amplitude =  0.0175
    X: D( 46) --> V(  2) amplitude = -0.2070
    X: D( 46) --> V(  3) amplitude =  0.0493
    X: D( 46) --> V(  5) amplitude = -0.0346
    X: D( 46) --> V(  6) amplitude = -0.0205
    X: D( 46) --> V(  8) amplitude =  0.0278
    X: D( 46) --> V( 10) amplitude = -0.0157
    X: D( 47) --> V(  3) amplitude =  0.0230
    X: D( 47) --> V(  8) amplitude = -0.0212
    X: D( 47) --> V( 10) amplitude =  0.0170
    X: D( 48) --> V(  1) amplitude =  0.0836
    X: D( 48) --> V(  2) amplitude = -0.0281
    X: D( 49) --> V(  1) amplitude =  0.1220
    X: D( 49) --> V(  3) amplitude =  0.0259
    X: D( 49) --> V(  4) amplitude = -0.0191
    X: D( 49) --> V(  9) amplitude = -0.0162
    X: D( 49) --> V( 12) amplitude =  0.0248
    X: D( 50) --> V(  1) amplitude =  0.7253
    X: D( 50) --> V(  2) amplitude = -0.2706
    X: D( 50) --> V(  3) amplitude = -0.0230
    X: D( 50) --> V(  4) amplitude = -0.0728
    X: D( 50) --> V(  5) amplitude = -0.0352
    X: D( 50) --> V(  7) amplitude =  0.0218
    X: D( 50) --> V( 12) amplitude =  0.0380
    X: D( 50) --> V( 25) amplitude =  0.0153
    X: D( 51) --> V(  1) amplitude =  0.1957
    X: D( 51) --> V(  2) amplitude = -0.0241
    X: D( 51) --> V(  3) amplitude =  0.2564
    X: D( 51) --> V(  4) amplitude = -0.0213
    X: D( 51) --> V(  6) amplitude = -0.0335
    X: D( 51) --> V(  8) amplitude = -0.0217
    X: D( 51) --> V(  9) amplitude = -0.0162
    X: D( 52) --> V(  2) amplitude = -0.4078
    X: D( 52) --> V(  3) amplitude =  0.1134
    X: D( 52) --> V(  5) amplitude = -0.0332
    X: D( 52) --> V(  6) amplitude = -0.0248
    X: D( 52) --> V(  7) amplitude = -0.0202
    X: D( 52) --> V(  8) amplitude =  0.0832
    X: D( 52) --> V( 10) amplitude = -0.0578
    X: D( 52) --> V( 14) amplitude =  0.0153

 Excited state   6: excitation energy (eV) =    4.4256
    Total energy for state   6:   -618.775829699524
    Multiplicity: Singlet 
    Trans. Mom.: -0.0005 X   0.0096 Y  -0.2772 Z
    Strength   :  0.0083
    X: D( 36) --> V(  2) amplitude =  0.0223
    X: D( 37) --> V(  3) amplitude = -0.0224
    X: D( 38) --> V(  3) amplitude =  0.0546
    X: D( 39) --> V(  2) amplitude =  0.0541
    X: D( 41) --> V(  2) amplitude =  0.0244
    X: D( 41) --> V(  8) amplitude =  0.0146
    X: D( 42) --> V(  3) amplitude = -0.0246
    X: D( 42) --> V(  7) amplitude =  0.0147
    X: D( 43) --> V(  1) amplitude =  0.0289
    X: D( 44) --> V(  2) amplitude = -0.0561
    X: D( 44) --> V(  3) amplitude =  0.0405
    X: D( 44) --> V(  7) amplitude =  0.0150
    X: D( 44) --> V(  8) amplitude =  0.0153
    X: D( 45) --> V(  2) amplitude =  0.0403
    X: D( 45) --> V(  3) amplitude =  0.0569
    X: D( 45) --> V(  7) amplitude =  0.0158
    X: D( 45) --> V(  8) amplitude = -0.0147
    X: D( 46) --> V(  1) amplitude = -0.1834
    X: D( 46) --> V(  4) amplitude =  0.0287
    X: D( 48) --> V(  2) amplitude =  0.1064
    X: D( 48) --> V(  3) amplitude = -0.0805
    X: D( 48) --> V(  5) amplitude =  0.0159
    X: D( 48) --> V(  6) amplitude =  0.0198
    X: D( 48) --> V(  7) amplitude = -0.0205
    X: D( 48) --> V( 11) amplitude = -0.0211
    X: D( 49) --> V(  2) amplitude =  0.0808
    X: D( 49) --> V(  3) amplitude =  0.1072
    X: D( 49) --> V(  5) amplitude =  0.0199
    X: D( 49) --> V(  6) amplitude = -0.0161
    X: D( 49) --> V(  8) amplitude = -0.0207
    X: D( 49) --> V( 10) amplitude =  0.0206
    X: D( 50) --> V(  2) amplitude =  0.6180
    X: D( 50) --> V(  3) amplitude = -0.0646
    X: D( 50) --> V(  5) amplitude =  0.0683
    X: D( 50) --> V(  6) amplitude =  0.0243
    X: D( 50) --> V(  8) amplitude = -0.0741
    X: D( 50) --> V( 10) amplitude =  0.0337
    X: D( 50) --> V( 14) amplitude = -0.0257
    X: D( 51) --> V(  2) amplitude =  0.0698
    X: D( 51) --> V(  3) amplitude =  0.6252
    X: D( 51) --> V(  5) amplitude =  0.0250
    X: D( 51) --> V(  6) amplitude = -0.0690
    X: D( 51) --> V(  7) amplitude =  0.0740
    X: D( 51) --> V( 11) amplitude =  0.0339
    X: D( 51) --> V( 13) amplitude = -0.0258
    X: D( 52) --> V(  1) amplitude = -0.2994
    X: D( 52) --> V(  4) amplitude =  0.0282
    X: D( 52) --> V(  9) amplitude =  0.0250
    X: D( 52) --> V( 12) amplitude = -0.0485
 
 ---------------------------------------------------
  Timing summary (seconds)
  CPU time        766.77s
  System time       0.00s
  Wall time       861.76s
================================================================================
                             Excited State Analysis
================================================================================

Created directory /public/polonium20/scratch/tmp/plasserf.15015/SAVEDIR/plots
  ----------------------------------------------------------------------------
                            Density Matrix Analysis
  ----------------------------------------------------------------------------

  Excited state   1:
  ------------------
    
    
    Mulliken Population Analysis
     Atom      Charge (e)              h+              e-           Del q
    ---------------------------------------------------------------------
     1 Ir       61.313910        0.563186       -0.078981        0.484205
     2  N       -0.648043        0.042960       -0.069033       -0.026073
     3  N       -0.648637        0.042549       -0.068528       -0.025979
     4  C       -0.468489        0.025284       -0.122877       -0.097593
     5  C       -0.465883        0.024714       -0.119719       -0.095005
     6  C        0.006598        0.004399       -0.106585       -0.102186
     7  C       -0.109336        0.071366       -0.013359        0.058007
     8  N       -0.649681        0.043818       -0.070788       -0.026970
     9  C       -0.464883        0.024641       -0.118748       -0.094107
    10  C        0.004017        0.004472       -0.109333       -0.104861
    11  C       -0.108539        0.072715       -0.013674        0.059042
    12  C        0.007844        0.004492       -0.105756       -0.101264
    13  C       -0.110318        0.070458       -0.013218        0.057240
    14  H        0.144546        0.004340       -0.000186        0.004154
    15  H        0.145216        0.000224       -0.000049        0.000175
    16  H        0.163379        0.000124       -0.000265       -0.000141
    17  H        0.163367        0.000128       -0.000264       -0.000136
    18  H        0.145340        0.000227       -0.000051        0.000176
    19  H        0.144554        0.004273       -0.000184        0.004089
    20  H        0.145282        0.000223       -0.000052        0.000171
    21  H        0.144508        0.004328       -0.000178        0.004150
    22  H        0.163427        0.000126       -0.000271       -0.000146
    23  H        0.327210        0.000992        0.000048        0.001040
    24  H        0.327372        0.000970        0.000035        0.001005
    25  H        0.327241        0.000980        0.000028        0.001008
    ---------------------------------------------------------------------
     Sum:       60.000000        1.011986       -1.011986       -0.000000
    
    Exciton analysis of the difference density matrix
      <r_h> [Ang]:                  [ -0.003046,   0.007669,  -0.104752]
      <r_e> [Ang]:                  [ -0.005821,   0.018630,   0.016888]
      |<r_e - r_h>| [Ang]:            0.122165
      Hole size [Ang]:                1.973735
        Cartesian components [Ang]: [  1.235921,   1.242352,   0.908124]
      Electron size [Ang]:            2.627080
        Cartesian components [Ang]: [  1.665910,   1.677399,   1.145698]

  Excited state   2:
  ------------------
    
    
    Mulliken Population Analysis
     Atom      Charge (e)              h+              e-           Del q
    ---------------------------------------------------------------------
     1 Ir       61.247313        0.569701       -0.152092        0.417609
     2  N       -0.641087        0.044064       -0.063182       -0.019118
     3  N       -0.631278        0.012652       -0.021273       -0.008620
     4  C       -0.529485        0.037512       -0.196101       -0.158589
     5  C       -0.458658        0.026996       -0.114775       -0.087779
     6  C        0.009649        0.002699       -0.101835       -0.099136
     7  C       -0.101871        0.077084       -0.011612        0.065472
     8  N       -0.676383        0.063400       -0.117072       -0.053672
     9  C       -0.382255        0.006875       -0.018354       -0.011479
    10  C       -0.052258        0.006572       -0.167709       -0.161137
    11  C       -0.069104        0.120745       -0.022268        0.098477
    12  C        0.103408        0.007328       -0.013028       -0.005700
    13  C       -0.150115        0.021497       -0.004055        0.017442
    14  H        0.144274        0.004573       -0.000690        0.003883
    15  H        0.145259        0.000285       -0.000066        0.000219
    16  H        0.163622        0.000144       -0.000042        0.000102
    17  H        0.163092        0.000088       -0.000498       -0.000411
    18  H        0.145403        0.000379       -0.000140        0.000239
    19  H        0.142971        0.002581       -0.000075        0.002506
    20  H        0.145125        0.000225       -0.000211        0.000015
    21  H        0.142991        0.003789       -0.001157        0.002633
    22  H        0.163462        0.000072       -0.000182       -0.000110
    23  H        0.326779        0.001254       -0.000644        0.000610
    24  H        0.325437        0.000850       -0.001779       -0.000929
    25  H        0.323707        0.001145       -0.003671       -0.002526
    ---------------------------------------------------------------------
     Sum:       60.000000        1.012510       -1.012510       -0.000000
    
    Exciton analysis of the difference density matrix
      <r_h> [Ang]:                  [ -0.201808,   0.289186,  -0.101147]
      <r_e> [Ang]:                  [ -0.471343,   0.643491,   0.021481]
      |<r_e - r_h>| [Ang]:            0.461756
      Hole size [Ang]:                1.944300
        Cartesian components [Ang]: [  1.098041,   1.334193,   0.891368]
      Electron size [Ang]:            2.403651
        Cartesian components [Ang]: [  1.282186,   1.714677,   1.092439]

  Excited state   3:
  ------------------
    
    
    Mulliken Population Analysis
     Atom      Charge (e)              h+              e-           Del q
    ---------------------------------------------------------------------
     1 Ir       61.247480        0.569929       -0.152153        0.417776
     2  N       -0.657265        0.036282       -0.071578       -0.035296
     3  N       -0.668811        0.067835       -0.113988       -0.046153
     4  C       -0.382294        0.009655       -0.021052       -0.011398
     5  C       -0.455453        0.020764       -0.105338       -0.084574
     6  C        0.029972        0.008388       -0.087200       -0.078812
     7  C       -0.111552        0.069503       -0.013712        0.055791
     8  N       -0.622732        0.015940       -0.015960       -0.000020
     9  C       -0.532593        0.040933       -0.202751       -0.161818
    10  C        0.094836        0.004483       -0.018525       -0.014042
    11  C       -0.146191        0.024173       -0.002783        0.021390
    12  C       -0.064030        0.003699       -0.176837       -0.173138
    13  C       -0.063483        0.125505       -0.021431        0.104074
    14  H        0.142502        0.002697       -0.000587        0.002110
    15  H        0.145136        0.000310       -0.000214        0.000096
    16  H        0.163138        0.000060       -0.000442       -0.000381
    17  H        0.163630        0.000113        0.000014        0.000127
    18  H        0.145237        0.000211       -0.000138        0.000072
    19  H        0.143994        0.004738       -0.001208        0.003529
    20  H        0.145412        0.000368       -0.000066        0.000301
    21  H        0.143746        0.003518       -0.000131        0.003388
    22  H        0.163408        0.000131       -0.000295       -0.000165
    23  H        0.323635        0.000903       -0.003438       -0.002535
    24  H        0.325402        0.001319       -0.002283       -0.000964
    25  H        0.326874        0.001028       -0.000386        0.000641
    ---------------------------------------------------------------------
     Sum:       60.000000        1.012483       -1.012483       -0.000000
    
    Exciton analysis of the difference density matrix
      <r_h> [Ang]:                  [  0.203329,  -0.297143,  -0.101154]
      <r_e> [Ang]:                  [  0.477311,  -0.661908,   0.021585]
      |<r_e - r_h>| [Ang]:            0.472424
      Hole size [Ang]:                1.942519
        Cartesian components [Ang]: [  1.352700,   1.071895,   0.891416]
      Electron size [Ang]:            2.397408
        Cartesian components [Ang]: [  1.773575,   1.186859,   1.092411]

  Excited state   4:
  ------------------
    
    
    Mulliken Population Analysis
     Atom      Charge (e)              h+              e-           Del q
    ---------------------------------------------------------------------
     1 Ir       61.368771        0.647162       -0.108095        0.539066
     2  N       -0.687792        0.025260       -0.091082       -0.065823
     3  N       -0.680561        0.025087       -0.082991       -0.057904
     4  C       -0.388316        0.009398       -0.026819       -0.017420
     5  C       -0.529998        0.016544       -0.175663       -0.159119
     6  C       -0.004199        0.017322       -0.130305       -0.112983
     7  C       -0.108919        0.080937       -0.022514        0.058424
     8  N       -0.622010        0.018538       -0.017836        0.000702
     9  C       -0.514522        0.028654       -0.172400       -0.143746
    10  C        0.113913        0.024192       -0.019157        0.005034
    11  C       -0.135012        0.037404       -0.004835        0.032569
    12  C       -0.007414        0.008762       -0.125285       -0.116523
    13  C       -0.155514        0.034853       -0.022810        0.012044
    14  H        0.150452        0.010129       -0.000068        0.010061
    15  H        0.144952        0.000119       -0.000208       -0.000089
    16  H        0.163268        0.000227       -0.000479       -0.000251
    17  H        0.163378        0.000181       -0.000306       -0.000125
    18  H        0.145002        0.000045       -0.000206       -0.000162
    19  H        0.141149        0.001004       -0.000320        0.000684
    20  H        0.145225        0.000147       -0.000033        0.000114
    21  H        0.152359        0.012432       -0.000432        0.012001
    22  H        0.164071        0.000599       -0.000101        0.000498
    23  H        0.326669        0.001598       -0.001099        0.000499
    24  H        0.325909        0.000715       -0.001172       -0.000457
    25  H        0.329139        0.002902        0.000004        0.002906
    ---------------------------------------------------------------------
     Sum:       60.000000        1.004212       -1.004212       -0.000000
    
    Exciton analysis of the difference density matrix
      <r_h> [Ang]:                  [ -0.163362,  -0.060129,  -0.116671]
      <r_e> [Ang]:                  [  0.004409,  -0.715370,  -0.051401]
      |<r_e - r_h>| [Ang]:            0.679521
      Hole size [Ang]:                1.865010
        Cartesian components [Ang]: [  1.202944,   1.160230,   0.827680]
      Electron size [Ang]:            2.470739
        Cartesian components [Ang]: [  1.822481,   1.229717,   1.127345]

  Excited state   5:
  ------------------
    
    
    Mulliken Population Analysis
     Atom      Charge (e)              h+              e-           Del q
    ---------------------------------------------------------------------
     1 Ir       61.368662        0.647041       -0.108083        0.538958
     2  N       -0.635784        0.020603       -0.034417       -0.013814
     3  N       -0.647282        0.021139       -0.045763       -0.024624
     4  C       -0.570161        0.027448       -0.226713       -0.199265
     5  C       -0.420692        0.019435       -0.069249       -0.049813
     6  C        0.075994        0.016327       -0.049117       -0.032791
     7  C       -0.156642        0.020989       -0.010289        0.010700
     8  N       -0.707285        0.027110       -0.111683       -0.084574
     9  C       -0.441935        0.007804       -0.078964       -0.071159
    10  C       -0.048318        0.009288       -0.166485       -0.157197
    11  C       -0.132862        0.063806       -0.029087        0.034719
    12  C        0.074706        0.024595       -0.058998       -0.034402
    13  C       -0.109988        0.068359       -0.010790        0.057569
    14  H        0.145162        0.005253       -0.000483        0.004770
    15  H        0.145036        0.000086       -0.000091       -0.000004
    16  H        0.163837        0.000433       -0.000116        0.000318
    17  H        0.163726        0.000498       -0.000275        0.000223
    18  H        0.145239        0.000166       -0.000091        0.000074
    19  H        0.155216        0.014972       -0.000221        0.014751
    20  H        0.144903        0.000061       -0.000269       -0.000208
    21  H        0.143609        0.003369       -0.000118        0.003250
    22  H        0.163158        0.000078       -0.000493       -0.000415
    23  H        0.327548        0.001805       -0.000426        0.001379
    24  H        0.328866        0.002800       -0.000300        0.002499
    25  H        0.325288        0.000603       -0.001548       -0.000945
    ---------------------------------------------------------------------
     Sum:       60.000000        1.004068       -1.004068       -0.000000
    
    Exciton analysis of the difference density matrix
      <r_h> [Ang]:                  [  0.168205,   0.055882,  -0.116925]
      <r_e> [Ang]:                  [  0.021925,   0.741864,  -0.051656]
      |<r_e - r_h>| [Ang]:            0.704436
      Hole size [Ang]:                1.864674
        Cartesian components [Ang]: [  1.150958,   1.211200,   0.827828]
      Electron size [Ang]:            2.462725
        Cartesian components [Ang]: [  1.415900,   1.670133,   1.127340]

  Excited state   6:
  ------------------
    
    
    Mulliken Population Analysis
     Atom      Charge (e)              h+              e-           Del q
    ---------------------------------------------------------------------
     1 Ir       61.313874        0.649877       -0.165707        0.484170
     2  N       -0.665091        0.022313       -0.065435       -0.043122
     3  N       -0.662892        0.022087       -0.062321       -0.040234
     4  C       -0.462225        0.019220       -0.110549       -0.091329
     5  C       -0.469631        0.019899       -0.118652       -0.098753
     6  C        0.039066        0.018271       -0.087990       -0.069719
     7  C       -0.135912        0.047351       -0.015921        0.031431
     8  N       -0.661847        0.022505       -0.061640       -0.039135
     9  C       -0.463495        0.019550       -0.112269       -0.092719
    10  C        0.045339        0.018427       -0.081966       -0.063539
    11  C       -0.134516        0.047944       -0.014879        0.033065
    12  C        0.044287        0.018529       -0.083351       -0.064822
    13  C       -0.136421        0.046264       -0.015127        0.031137
    14  H        0.148513        0.008615       -0.000494        0.008122
    15  H        0.144993        0.000081       -0.000129       -0.000048
    16  H        0.163659        0.000361       -0.000222        0.000139
    17  H        0.163616        0.000346       -0.000234        0.000113
    18  H        0.145109        0.000079       -0.000134       -0.000055
    19  H        0.148015        0.008051       -0.000502        0.007550
    20  H        0.145064        0.000079       -0.000126       -0.000046
    21  H        0.148040        0.008179       -0.000498        0.007681
    22  H        0.163699        0.000348       -0.000222        0.000126
    23  H        0.326240        0.001965       -0.001894        0.000070
    24  H        0.326277        0.001855       -0.001944       -0.000089
    25  H        0.326240        0.001878       -0.001871        0.000007
    ---------------------------------------------------------------------
     Sum:       60.000000        1.004076       -1.004076       -0.000000
    
    Exciton analysis of the difference density matrix
      <r_h> [Ang]:                  [ -0.003942,   0.003735,  -0.117857]
      <r_e> [Ang]:                  [ -0.025460,  -0.024742,  -0.023557]
      |<r_e - r_h>| [Ang]:            0.100829
      Hole size [Ang]:                1.865938
        Cartesian components [Ang]: [  1.186168,   1.188408,   0.813889]
      Electron size [Ang]:            2.507939
        Cartesian components [Ang]: [  1.603322,   1.592283,   1.088004]

  ----------------------------------------------------------------------------
                 Transition Density Matrix Analysis
  ----------------------------------------------------------------------------

  Excited state   1:
  ------------------
    
    Atomic CT numbers
      omega =     1.0120
    
    Exciton analysis of the transition density matrix
      <r_h> [Ang]:                        [ -0.003037,   0.007669,  -0.106088]
      <r_e> [Ang]:                        [ -0.005830,   0.018631,   0.018224]
      |<r_e - r_h>| [Ang]:                  0.124825
      Hole size [Ang]:                      1.974199
        Cartesian components [Ang]:       [  1.236209,   1.242636,   0.908352]
      Electron size [Ang]:                  2.626669
        Cartesian components [Ang]:       [  1.665697,   1.677189,   1.145375]
      RMS electron-hole separation [Ang]:   2.871033
        Cartesian components [Ang]:       [  1.744088,   1.752027,   1.459927]
      Covariance(r_h, r_e) [Ang^2]:         1.284802
      Correlation coefficient:              0.247765

  Excited state   2:
  ------------------
    
    Atomic CT numbers
      omega =     1.0125
    
    Exciton analysis of the transition density matrix
      <r_h> [Ang]:                        [ -0.201447,   0.289338,  -0.102394]
      <r_e> [Ang]:                        [ -0.471703,   0.643340,   0.022728]
      |<r_e - r_h>| [Ang]:                  0.462613
      Hole size [Ang]:                      1.945312
        Cartesian components [Ang]:       [  1.098790,   1.334788,   0.891761]
      Electron size [Ang]:                  2.402750
        Cartesian components [Ang]:       [  1.281468,   1.714245,   1.091976]
      RMS electron-hole separation [Ang]:   2.738863
        Cartesian components [Ang]:       [  1.534529,   1.778906,   1.407866]
      Covariance(r_h, r_e) [Ang^2]:         1.135041
      Correlation coefficient:              0.242837

  Excited state   3:
  ------------------
    
    Atomic CT numbers
      omega =     1.0125
    
    Exciton analysis of the transition density matrix
      <r_h> [Ang]:                        [  0.202962,  -0.297281,  -0.102396]
      <r_e> [Ang]:                        [  0.477679,  -0.661770,   0.022827]
      |<r_e - r_h>| [Ang]:                  0.473289
      Hole size [Ang]:                      1.943515
        Cartesian components [Ang]:       [  1.353350,   1.072553,   0.891808]
      Electron size [Ang]:                  2.396515
        Cartesian components [Ang]:       [  1.773022,   1.186306,   1.091950]
      RMS electron-hole separation [Ang]:   2.739122
        Cartesian components [Ang]:       [  1.782935,   1.530321,   1.407852]
      Covariance(r_h, r_e) [Ang^2]:         1.120875
      Correlation coefficient:              0.240652

  Excited state   4:
  ------------------
    
    Atomic CT numbers
      omega =     1.0042
    
    Exciton analysis of the transition density matrix
      <r_h> [Ang]:                        [ -0.163609,  -0.059903,  -0.116985]
      <r_e> [Ang]:                        [  0.004655,  -0.715596,  -0.051087]
      |<r_e - r_h>| [Ang]:                  0.680139
      Hole size [Ang]:                      1.865280
        Cartesian components [Ang]:       [  1.202995,   1.160397,   0.827980]
      Electron size [Ang]:                  2.470449
        Cartesian components [Ang]:       [  1.822424,   1.229439,   1.127106]
      RMS electron-hole separation [Ang]:   3.139164
        Cartesian components [Ang]:       [  2.177938,   1.789857,   1.381067]
      Covariance(r_h, r_e) [Ang^2]:         0.095315
      Correlation coefficient:              0.020684

  Excited state   5:
  ------------------
    
    Atomic CT numbers
      omega =     1.0041
    
    Exciton analysis of the transition density matrix
      <r_h> [Ang]:                        [  0.168409,   0.055651,  -0.117253]
      <r_e> [Ang]:                        [  0.021720,   0.742095,  -0.051327]
      |<r_e - r_h>| [Ang]:                  0.705032
      Hole size [Ang]:                      1.864931
        Cartesian components [Ang]:       [  1.151067,   1.211308,   0.828096]
      Electron size [Ang]:                  2.462445
        Cartesian components [Ang]:       [  1.415790,   1.669959,   1.127124]
      RMS electron-hole separation [Ang]:   3.139974
        Cartesian components [Ang]:       [  1.788623,   2.179701,   1.381727]
      Covariance(r_h, r_e) [Ang^2]:         0.089619
      Correlation coefficient:              0.019515

  Excited state   6:
  ------------------
    
    Atomic CT numbers
      omega =     1.0041
    
    Exciton analysis of the transition density matrix
      <r_h> [Ang]:                        [ -0.003952,   0.003752,  -0.118316]
      <r_e> [Ang]:                        [ -0.025450,  -0.024760,  -0.023098]
      |<r_e - r_h>| [Ang]:                  0.101694
      Hole size [Ang]:                      1.866402
        Cartesian components [Ang]:       [  1.186426,   1.188678,   0.814182]
      Electron size [Ang]:                  2.507576
        Cartesian components [Ang]:       [  1.603131,   1.592081,   1.087744]
      RMS electron-hole separation [Ang]:   3.101393
        Cartesian components [Ang]:       [  1.978729,   1.975938,   1.341246]
      Covariance(r_h, r_e) [Ang^2]:         0.081548
      Correlation coefficient:              0.017424

  ----------------------------------------------------------------------------
               State-averaged NTO Analysis
  ----------------------------------------------------------------------------


  ----------------------------------------------------------------------------
                              SA-NTO Decomposition
  ----------------------------------------------------------------------------

  Excited state   1:
  ------------------
    Decomposition into state-averaged NTOs
      H- 0 -> L+ 0: -0.6476 ( 83.9%)
      H- 2 -> L+ 2:  0.1721 (  5.9%)
      H- 1 -> L+ 1: -0.1703 (  5.8%)
      H- 5 -> L+ 2: -0.0798 (  1.3%)
      H- 4 -> L+ 1: -0.0789 (  1.2%)
                     omega = 101.2%

  Excited state   2:
  ------------------
    Decomposition into state-averaged NTOs
      H- 0 -> L+ 2:  0.6011 ( 72.3%)
      H- 2 -> L+ 0: -0.2591 ( 13.4%)
      H- 1 -> L+ 0: -0.1197 (  2.9%)
      H- 1 -> L+ 1: -0.1128 (  2.5%)
      H- 2 -> L+ 2: -0.1102 (  2.4%)
      H- 0 -> L+ 1: -0.0959 (  1.8%)
      H- 5 -> L+ 0:  0.0712 (  1.0%)
                     omega = 101.3%

  Excited state   3:
  ------------------
    Decomposition into state-averaged NTOs
      H- 0 -> L+ 1: -0.6014 ( 72.3%)
      H- 1 -> L+ 0: -0.2587 ( 13.4%)
      H- 2 -> L+ 0:  0.1195 (  2.9%)
      H- 1 -> L+ 2:  0.1115 (  2.5%)
      H- 2 -> L+ 1: -0.1114 (  2.5%)
      H- 0 -> L+ 2: -0.0960 (  1.8%)
      H- 4 -> L+ 0: -0.0711 (  1.0%)
                     omega = 101.2%

  Excited state   4:
  ------------------
    Decomposition into state-averaged NTOs
      H- 1 -> L+ 0: -0.5459 ( 59.6%)
      H- 0 -> L+ 1:  0.3213 ( 20.6%)
      H- 1 -> L+ 2:  0.1877 (  7.0%)
      H- 2 -> L+ 1: -0.1851 (  6.9%)
      H- 3 -> L+ 1:  0.0882 (  1.6%)
      H- 0 -> L+ 2: -0.0841 (  1.4%)
                     omega = 100.4%

  Excited state   5:
  ------------------
    Decomposition into state-averaged NTOs
      H- 2 -> L+ 0: -0.5457 ( 59.6%)
      H- 0 -> L+ 2: -0.3216 ( 20.7%)
      H- 2 -> L+ 2: -0.1914 (  7.3%)
      H- 1 -> L+ 1: -0.1814 (  6.6%)
      H- 3 -> L+ 2: -0.0881 (  1.6%)
      H- 0 -> L+ 1: -0.0837 (  1.4%)
                     omega = 100.4%

  Excited state   6:
  ------------------
    Decomposition into state-averaged NTOs
      H- 1 -> L+ 1: -0.4526 ( 41.0%)
      H- 2 -> L+ 2:  0.4489 ( 40.3%)
      H- 0 -> L+ 0:  0.2361 ( 11.2%)
      H- 2 -> L+ 1: -0.1053 (  2.2%)
      H- 1 -> L+ 2: -0.1002 (  2.0%)
      H- 3 -> L+ 0:  0.0887 (  1.6%)
                     omega = 100.4%

================================================================================
 
 --------------------------------------------------------------
 
                    Orbital Energies (a.u.)
 --------------------------------------------------------------
 
 Alpha MOs
 -- Occupied --
-14.248 -14.248 -14.248 -10.182 -10.182 -10.182 -10.123 -10.123
-10.123 -10.100 -10.100 -10.100  -3.755  -2.183  -2.183  -2.175
 -1.058  -1.053  -1.053  -0.890  -0.889  -0.889  -0.772  -0.754
 -0.754  -0.661  -0.656  -0.656  -0.641  -0.641  -0.640  -0.559
 -0.538  -0.538  -0.513  -0.507  -0.507  -0.487  -0.487  -0.472
 -0.459  -0.459  -0.456  -0.381  -0.381  -0.371  -0.363  -0.347
 -0.347  -0.290  -0.290  -0.283
 -- Virtual --
  0.056   0.068   0.068   0.109   0.127   0.127   0.191   0.191
  0.204   0.214   0.214   0.216   0.227   0.227   0.253   0.286
  0.286   0.294   0.294   0.298   0.334   0.334   0.356   0.394
  0.412   0.418   0.418   0.433   0.457   0.457   0.462   0.488
  0.488   0.589   0.593   0.593   0.654   0.654   0.670   0.693
  0.700   0.700   0.720   0.720   0.721   0.728   0.743   0.743
  0.766   0.772   0.772   0.811   0.825   0.825   0.848   0.856
  0.856   0.886   0.928   0.928   0.951   0.960   0.960   0.980
  0.989   0.989   1.021   1.021   1.028   1.037   1.037   1.065
  1.065   1.084   1.098   1.098   1.101   1.112   1.112   1.118
  1.128   1.204   1.204   1.235   1.252   1.252   1.281   1.318
  1.318   1.332   1.346   1.346   1.394   1.411   1.411   1.441
  1.491   1.491   1.509   1.553   1.573   1.573   1.647   1.647
  1.664   1.673   1.673   1.720   1.783   1.783   1.901   1.901
  1.926   1.926   1.942   1.951   1.986   2.032   2.032   2.038
  2.083   2.129   2.129   2.148   2.207   2.207   2.244   2.244
  2.263   2.301   2.301   2.349   2.388   2.391   2.391   2.410
  2.410   2.433   2.441   2.441   2.445   2.536   2.536   2.624
  2.654   2.654   2.668   2.668   2.673   2.738   2.787   2.787
  2.856   2.862   2.862   3.006   3.006   3.023   3.146   3.178
  3.178   8.289
 --------------------------------------------------------------
 

                        RESTRICTED (RHF) MOLECULAR ORBITAL COEFFICIENTS
                         1         2         3         4         5         6
 eigenvalues:        -14.248   -14.248   -14.248   -10.182   -10.182   -10.182
   1  Ir    s       -0.00000  -0.00005  -0.00005  -0.00049  -0.00048  -0.00074
   2  Ir    s        0.00003   0.00043   0.00047  -0.00014  -0.00014  -0.00021
   3  Ir    s        0.00024   0.00342   0.00371   0.00418   0.00406   0.00629
   4  Ir    px       0.00040  -0.00004   0.00002   0.00009   0.00040  -0.00032
   5  Ir    py      -0.00004  -0.00029   0.00027   0.00045  -0.00022  -0.00015
   6  Ir    pz       0.00003   0.00039   0.00042  -0.00019  -0.00018  -0.00028
   7  Ir    px       0.00933  -0.00124   0.00054   0.00026   0.00970  -0.00644
   8  Ir    py      -0.00128  -0.00682   0.00638   0.01017  -0.00333  -0.00461
   9  Ir    pz       0.00030   0.00424   0.00460  -0.00244  -0.00237  -0.00368
  10  Ir    px      -0.00092  -0.00013   0.00018  -0.00031   0.00067  -0.00023
  11  Ir    py      -0.00022   0.00068  -0.00061   0.00060   0.00012  -0.00047
  12  Ir    pz      -0.00005  -0.00076  -0.00082   0.00027   0.00027   0.00041
  13  Ir    d 1      0.00013  -0.00017   0.00015   0.00010   0.00032  -0.00027
  14  Ir    d 2      0.00000   0.00006  -0.00006   0.00004  -0.00001  -0.00002
  15  Ir    d 3      0.00000   0.00003   0.00004   0.00008   0.00008   0.00012
  16  Ir    d 4     -0.00009   0.00000   0.00000  -0.00001   0.00004  -0.00002
  17  Ir    d 5     -0.00023  -0.00009   0.00010   0.00036  -0.00021  -0.00011
  18  Ir    d 1     -0.00331   0.00481  -0.00423   0.00008  -0.00363   0.00229
  19  Ir    d 2      0.00321  -0.00476   0.00419  -0.00192   0.00125   0.00047
  20  Ir    d 3     -0.00004  -0.00064  -0.00069  -0.00047  -0.00045  -0.00070
  21  Ir    d 4      0.00633   0.00216  -0.00240  -0.00069  -0.00164   0.00152
  22  Ir    d 5      0.00640   0.00223  -0.00247  -0.00375   0.00105   0.00181
  23  N 1   s       -0.65587   0.73421   0.14784  -0.00000  -0.00002  -0.00002
  24  N 1   s       -0.02171   0.02407   0.00453  -0.00011  -0.00013  -0.00001
  25  N 1   px       0.00080  -0.00063  -0.00022  -0.00015  -0.00003   0.00088
  26  N 1   py       0.00026  -0.00045  -0.00001   0.00001  -0.00016   0.00038
  27  N 1   pz       0.00020  -0.00014   0.00009   0.00002  -0.00012   0.00028
  28  N 1   s        0.02183  -0.02192  -0.00208  -0.00042   0.00196  -0.00118
  29  N 1   px      -0.00240   0.00039   0.00128   0.00097  -0.00126   0.00131
  30  N 1   py       0.00234  -0.00149   0.00055   0.00026   0.00099  -0.00009
  31  N 1   pz      -0.00454   0.00316  -0.00106   0.00025  -0.00087   0.00173
  32  N 1   d 1      0.00010  -0.00010   0.00012  -0.00001   0.00028  -0.00085
  33  N 1   d 2     -0.00020   0.00030  -0.00011  -0.00003  -0.00001  -0.00014
  34  N 1   d 3      0.00002  -0.00008   0.00008  -0.00002  -0.00012   0.00034
  35  N 1   d 4     -0.00017   0.00019  -0.00002   0.00005   0.00027  -0.00087
  36  N 1   d 5     -0.00019   0.00012   0.00011  -0.00003   0.00011  -0.00080
  37  N 2   s        0.74890   0.63993   0.14392  -0.00002  -0.00002  -0.00001
  38  N 2   s        0.02482   0.02085   0.00449  -0.00011   0.00004  -0.00012
  39  N 2   px       0.00073   0.00059   0.00013   0.00004  -0.00077  -0.00016
  40  N 2   py      -0.00040  -0.00054   0.00007   0.00015   0.00057   0.00005
  41  N 2   pz      -0.00025  -0.00007   0.00005  -0.00009   0.00028   0.00009
  42  N 2   s       -0.02472  -0.01859  -0.00214   0.00184  -0.00130  -0.00056
  43  N 2   px       0.00176  -0.00019  -0.00010  -0.00019  -0.00030  -0.00087
  44  N 2   py       0.00191   0.00276  -0.00105  -0.00151   0.00116   0.00087
  45  N 2   pz       0.00498   0.00243  -0.00101  -0.00067   0.00170   0.00069
  46  N 2   d 1     -0.00001  -0.00020  -0.00001  -0.00009   0.00109   0.00035
  47  N 2   d 2      0.00002   0.00006  -0.00001   0.00014  -0.00070  -0.00013
  48  N 2   d 3     -0.00011   0.00003  -0.00002  -0.00007   0.00035   0.00007
  49  N 2   d 4     -0.00043  -0.00014  -0.00005  -0.00006   0.00054   0.00016
  50  N 2   d 5     -0.00022  -0.00009   0.00003   0.00014  -0.00035  -0.00008
  51  C 1   s       -0.00003  -0.00001  -0.00002   0.00041   0.00011  -0.00006
  52  C 1   s        0.00005  -0.00019  -0.00025   0.00096   0.00023  -0.00018
  53  C 1   px       0.00002  -0.00001   0.00004   0.00009   0.00011  -0.00004
  54  C 1   py      -0.00023   0.00000   0.00032  -0.00006  -0.00018  -0.00007
  55  C 1   pz       0.00007  -0.00006  -0.00002  -0.00001   0.00006  -0.00007
  56  C 1   s        0.00485  -0.00038   0.00385  -0.00765   0.00208   0.00137
  57  C 1   px      -0.00207  -0.00044  -0.00038   0.00173  -0.00195  -0.00019
  58  C 1   py      -0.00091   0.00033  -0.00052   0.00291   0.00237   0.00028
  59  C 1   pz       0.00269  -0.00050   0.00001  -0.00327   0.00115   0.00113
  60  C 1   d 1      0.00006   0.00010  -0.00005  -0.00011   0.00006  -0.00002
  61  C 1   d 2     -0.00005   0.00013   0.00009   0.00008   0.00007  -0.00000
  62  C 1   d 3      0.00000  -0.00001  -0.00009   0.00003  -0.00000   0.00001
  63  C 1   d 4     -0.00019  -0.00013   0.00002  -0.00002  -0.00006  -0.00008
  64  C 1   d 5     -0.00020   0.00009  -0.00009  -0.00001  -0.00004  -0.00003
  65  C 2   s        0.00001   0.00000  -0.00003   0.00004  -0.00019   0.00038
  66  C 2   s       -0.00002  -0.00026  -0.00019   0.00006  -0.00049   0.00087
  67  C 2   px       0.00007  -0.00035   0.00003   0.00011   0.00006   0.00004
  68  C 2   py      -0.00001  -0.00017   0.00004   0.00016  -0.00007   0.00012
  69  C 2   pz      -0.00006  -0.00007  -0.00000   0.00005  -0.00007  -0.00003
  70  C 2   s       -0.00473   0.00010   0.00402   0.00332   0.00317  -0.00662
  71  C 2   px      -0.00129  -0.00058   0.00131  -0.00059   0.00102  -0.00336
  72  C 2   py       0.00033   0.00063  -0.00126  -0.00287   0.00017  -0.00033
  73  C 2   pz      -0.00168  -0.00167   0.00137   0.00174   0.00183  -0.00264
  74  C 2   d 1     -0.00022  -0.00003   0.00003   0.00000   0.00002   0.00007
  75  C 2   d 2     -0.00003   0.00003  -0.00022  -0.00009  -0.00003  -0.00009
  76  C 2   d 3      0.00004  -0.00007  -0.00004  -0.00000   0.00000   0.00003
  77  C 2   d 4     -0.00005  -0.00016   0.00003  -0.00002   0.00006  -0.00004
  78  C 2   d 5     -0.00005  -0.00008   0.00012   0.00008   0.00001  -0.00008
  79  C 3   s       -0.00005   0.00008  -0.00000  -0.06034  -0.22364   0.96796
  80  C 3   s        0.00057  -0.00061  -0.00024  -0.00233  -0.00798   0.03409
  81  C 3   px       0.00029  -0.00051  -0.00019  -0.00012  -0.00034   0.00120
  82  C 3   py       0.00004  -0.00019  -0.00003  -0.00003  -0.00026   0.00074
  83  C 3   pz       0.00020  -0.00027  -0.00007   0.00008  -0.00011   0.00014
  84  C 3   s       -0.01080   0.00685   0.00207   0.00382   0.00447  -0.02253
  85  C 3   px      -0.00444   0.00387   0.00108   0.00132  -0.00064   0.00131
  86  C 3   py      -0.00442   0.00279   0.00069   0.00131   0.00015  -0.00178
  87  C 3   pz       0.00146  -0.00025   0.00029  -0.00088  -0.00090   0.00374
  88  C 3   d 1      0.00020  -0.00032  -0.00003   0.00001  -0.00017   0.00054
  89  C 3   d 2      0.00034  -0.00033  -0.00007  -0.00001  -0.00002  -0.00007
  90  C 3   d 3     -0.00020   0.00021   0.00010   0.00003   0.00002  -0.00013
  91  C 3   d 4      0.00049  -0.00059  -0.00010   0.00002  -0.00017   0.00064
  92  C 3   d 5      0.00048  -0.00050  -0.00013  -0.00000  -0.00011   0.00049
  93  C 4   s       -0.00009   0.00005   0.00001  -0.00005  -0.00042   0.00168
  94  C 4   s       -0.00060   0.00039   0.00005   0.00025   0.00012  -0.00092
  95  C 4   px      -0.00008   0.00006  -0.00004  -0.00008   0.00000  -0.00011
  96  C 4   py      -0.00018   0.00020  -0.00003  -0.00003  -0.00022   0.00053
  97  C 4   pz       0.00012  -0.00023   0.00000   0.00005   0.00019  -0.00084
  98  C 4   s        0.00629  -0.00280  -0.00147  -0.00455  -0.00185   0.00753
  99  C 4   px       0.00432  -0.00230  -0.00106  -0.00178  -0.00016   0.00097
 100  C 4   py       0.00124  -0.00098  -0.00045  -0.00092   0.00068  -0.00238
 101  C 4   pz       0.00282  -0.00074  -0.00022  -0.00038  -0.00090   0.00427
 102  C 4   d 1     -0.00003   0.00006  -0.00002  -0.00006  -0.00004   0.00018
 103  C 4   d 2     -0.00009   0.00002  -0.00001  -0.00000  -0.00017   0.00072
 104  C 4   d 3      0.00009  -0.00006  -0.00001   0.00004   0.00017  -0.00061
 105  C 4   d 4      0.00006  -0.00007   0.00003   0.00003   0.00008  -0.00032
 106  C 4   d 5     -0.00001  -0.00002   0.00000  -0.00003  -0.00003   0.00014
 107  N 3   s       -0.01112  -0.20611   0.97389  -0.00001  -0.00000  -0.00002
 108  N 3   s       -0.00046  -0.00712   0.03194   0.00004  -0.00009  -0.00014
 109  N 3   px       0.00020  -0.00006   0.00007  -0.00008   0.00009  -0.00014
 110  N 3   py       0.00008  -0.00028   0.00110  -0.00095   0.00001  -0.00018
 111  N 3   pz       0.00005   0.00017  -0.00019   0.00029   0.00007  -0.00003
 112  N 3   s        0.00071   0.00933  -0.02956  -0.00161  -0.00085   0.00144
 113  N 3   px      -0.00083   0.00181  -0.00295  -0.00108  -0.00057   0.00115
 114  N 3   py      -0.00157  -0.00028  -0.00059  -0.00106  -0.00116   0.00011
 115  N 3   pz      -0.00028  -0.00326   0.00458   0.00185   0.00056  -0.00026
 116  N 3   d 1      0.00004  -0.00010   0.00025  -0.00024  -0.00004  -0.00013
 117  N 3   d 2      0.00011   0.00016  -0.00036   0.00085   0.00009   0.00003
 118  N 3   d 3      0.00009   0.00005  -0.00006   0.00036   0.00003  -0.00001
 119  N 3   d 4     -0.00010  -0.00009   0.00015   0.00035  -0.00000  -0.00004
 120  N 3   d 5     -0.00012  -0.00010  -0.00003   0.00116   0.00018   0.00008
 121  C 5   s        0.00001  -0.00003   0.00000  -0.00014   0.00038   0.00013
 122  C 5   s       -0.00007  -0.00018  -0.00026  -0.00038   0.00089   0.00028
 123  C 5   px       0.00026   0.00004   0.00019   0.00004  -0.00007  -0.00022
 124  C 5   py      -0.00018  -0.00007  -0.00011   0.00008  -0.00004   0.00001
 125  C 5   pz      -0.00002   0.00002  -0.00009  -0.00008  -0.00003   0.00003
 126  C 5   s        0.00027   0.00596  -0.00171   0.00180  -0.00771   0.00142
 127  C 5   px      -0.00058   0.00008   0.00019  -0.00079   0.00116   0.00317
 128  C 5   py      -0.00087   0.00199  -0.00086   0.00030  -0.00298   0.00011
 129  C 5   pz      -0.00104   0.00175  -0.00183   0.00121  -0.00329   0.00102
 130  C 5   d 1      0.00005  -0.00017   0.00012  -0.00000   0.00005  -0.00006
 131  C 5   d 2     -0.00016   0.00009  -0.00009   0.00006  -0.00001   0.00003
 132  C 5   d 3     -0.00005  -0.00007  -0.00004   0.00001   0.00003   0.00001
 133  C 5   d 4     -0.00008   0.00012   0.00013  -0.00000   0.00007   0.00011
 134  C 5   d 5      0.00011   0.00007  -0.00010   0.00002   0.00011  -0.00001
 135  C 6   s       -0.00002  -0.00002   0.00009   0.98946   0.07340   0.07861
 136  C 6   s       -0.00007   0.00011  -0.00086   0.03490   0.00240   0.00264
 137  C 6   px       0.00004  -0.00001   0.00016   0.00005   0.00005  -0.00004
 138  C 6   py      -0.00006   0.00004   0.00062  -0.00147  -0.00009  -0.00001
 139  C 6   pz       0.00001   0.00004  -0.00034   0.00016   0.00011  -0.00005
 140  C 6   s        0.00266  -0.00463   0.01180  -0.02316   0.00078  -0.00222
 141  C 6   px       0.00055  -0.00097   0.00125  -0.00228   0.00017  -0.00019
 142  C 6   py      -0.00104   0.00234  -0.00737  -0.00011  -0.00187   0.00015
 143  C 6   pz      -0.00040   0.00116  -0.00089   0.00393  -0.00035   0.00019
 144  C 6   d 1     -0.00006   0.00010  -0.00041   0.00015   0.00001   0.00004
 145  C 6   d 2     -0.00003  -0.00019   0.00089  -0.00054  -0.00009  -0.00001
 146  C 6   d 3      0.00004  -0.00003   0.00030  -0.00013   0.00001  -0.00002
 147  C 6   d 4     -0.00003   0.00003  -0.00003  -0.00037  -0.00007  -0.00005
 148  C 6   d 5     -0.00005  -0.00012   0.00066  -0.00073  -0.00011  -0.00003
[...]
   186    2.855753135894e-02
   187    4.555802867971e-01
   188   -1.053634292178e-01
   189    2.245101022608e-01
   190    1.454918593734e-01
   191   -9.920697059891e-02
   192    6.629845303593e-02
   193    1.921117759256e-01
   194   -3.234711202883e-02
   195   -1.874393525163e-01
   196    6.478199379047e-02
   197   -1.877247134862e-01
   198    6.465425619162e-02
   199    1.923826527173e-01
   200   -3.212806675104e-02
   201   -9.927487234772e-02
   202    6.589793495485e-02
   203    1.926540806800e-01
   204   -3.210328932171e-02
   205   -9.949300400821e-02
   206    6.613919373315e-02
   207   -1.879707661607e-01
   208    6.455404813318e-02
   209    1.429749399285e-01
   210   -7.414139544550e-02
   211    1.432543155674e-01
   212   -7.425513944292e-02
   213    1.434256567662e-01
   214   -7.401964555254e-02
Sym=X
Ene= 3.178417
Spin=Alpha
Occup=0
     1   -3.901435092122e-05
     2   -6.242101345492e-05
     3   -1.589443118757e-04
     4    1.154456975964e-01
     5   -1.084407932167e-02
     6   -2.292068726191e-05
     7    1.481959582287e+00
     8    6.106901252221e-01
     9   -3.343777143449e-04
    10   -9.911106980727e-03
    11   -1.951343205859e-02
    12   -5.252983813707e-05
    13   -8.203966146521e-06
    14    5.223851831454e-02
    15   -2.654758043761e-02
    16    4.577191948839e-02
    17    5.712049023818e-02
    18    3.442825055104e-05
    19   -1.164736546993e+00
    20    7.118132839602e-01
    21   -7.913657855973e-01
    22   -9.663034733071e-01
    23    7.072994763243e-04
    24   -8.192935691803e-02
    25    5.887080980476e-02
    26    3.914644114845e-02
    27    2.505781873731e-02
    28    7.340286990765e-03
    29    3.088920363783e-01
    30    2.380373323248e-01
    31   -5.796123904408e-02
    32    1.278564739379e-01
    33    2.009717215939e-02
    34   -1.249466156373e-01
    35   -5.968540521575e-02
    36   -7.667525675693e-02
    37   -3.527488998735e-02
    38   -1.303187017493e-01
    39    1.953500169768e-01
    40   -9.320575940612e-02
    41   -4.166871309196e-02
    42    1.783551251324e+00
    43    2.104634330685e-01
    44   -5.765354552528e-01
    45   -6.025191231228e-01
    46   -3.335664841628e-01
    47   -1.340177694291e-01
    48   -8.298288831197e-02
    49    2.695291458028e-01
    50   -3.670574252741e-01
    51   -8.284346556822e-03
    52    5.346314882225e-02
    53   -6.819963748907e-03
    54    1.555979527129e-01
    55    1.537078425310e-02
    56    5.785062879624e-01
    57   -2.509938686500e-01
    58    3.997076587786e-01
    59    6.196142829245e-02
    60   -2.159138171277e-01
    61    1.291358285722e-01
    62    3.121841586764e-03
    63   -1.901397678846e-01
    64   -8.495022529413e-03
    65   -3.023426985930e-02
    66   -1.231942811705e-01
    67   -3.198576381604e-02
    68   -6.050860569102e-02
    69    2.163878799173e-02
    70    1.970289755459e+00
    71    4.441905213845e-01
    72   -1.000572640889e-01
    73    7.928360545383e-01
    74   -4.515771318015e-02
    75    4.534211959712e-02
    76   -3.178012599655e-02
    77    5.118258896246e-02
    78    2.001303342111e-01
    79   -1.635394407952e-02
    80   -4.253829657004e-02
    81    3.833378593117e-02
    82    9.282659224552e-03
    83    1.356802670195e-02
    84    8.563162715704e-01
    85    3.132019539745e-01
    86    3.295662155930e-01
    87   -7.353286299145e-02
    88    4.790923495811e-02
    89    2.257617721930e-01
    90    4.922479029738e-02
    91    1.064911400403e-01
    92   -2.996894742611e-02
    93    9.215780073407e-03
    94   -8.502275701132e-02
    95   -6.527538428674e-02
    96   -5.753559905000e-02
    97    4.387616491457e-03
    98   -6.464223595072e-01
    99   -3.785088460166e-01
   100   -1.622226312477e-01
   101   -2.086955179158e-01
   102   -1.899053247498e-02
   103    1.324840442740e-01
   104    1.635150570784e-01
   105    1.134560236667e-01
   106   -6.281682467610e-02
   107    3.460254562359e-02
   108    2.121158433081e-01
   109    1.245081304106e-02
   110   -1.455503248692e-01
   111    1.671859209436e-02
   112   -1.792159791596e+00
   113   -4.457604977423e-01
   114   -8.520622065249e-02
   115    6.606568412110e-01
   116    2.063280951880e-01
   117   -2.091825077409e-02
   118    2.956666092529e-02
   119    3.571064859649e-01
   120    6.323771117896e-02
   121    3.849080752227e-02
   122    6.987325341727e-02
   123   -2.062351098724e-01
   124    6.919880922514e-02
   125   -3.695425167819e-02
   126   -2.547569826236e+00
   127   -3.354082981512e-01
   128   -4.524692726268e-01
   129   -8.546165101491e-01
   130    2.606370000318e-01
   131    5.683805455240e-02
   132    5.811655260583e-02
   133   -2.498408520772e-01
   134    3.043662583776e-01
   135   -1.396197831809e-02
   136    2.017614578926e-01
   137   -4.774246579598e-03
   138   -1.816139212784e-01
   139    5.074769112292e-02
   140    1.086689418488e+00
   141    1.444360084761e-01
   142   -6.690997852804e-01
   143   -1.864503691006e-01
   144    1.112323954220e-01
   145   -1.216303175021e-01
   146   -4.180428231644e-01
   147   -4.954166827927e-02
   148    2.504757497570e-01
   149    2.660076172866e-02
   150    3.607713197172e-02
   151    1.927422715080e-02
   152    5.033445800778e-02
   153   -3.042954490805e-02
   154   -1.238699191019e+00
   155    2.177728557905e-02
   156    6.943523318926e-01
   157   -1.365216704594e-01
   158   -8.583787826588e-02
   159    1.762223987725e-01
   160   -3.743937517216e-01
   161   -4.324849625050e-02
   162    2.250856390269e-01
   163    3.027568951969e-02
   164   -1.587883550575e-01
   165    1.818124121840e-01
   166   -1.233613882734e-01
   167   -6.427711777633e-02
   168   -1.941352305126e+00
   169    1.092899368247e+00
   170   -3.153939302957e-01
   171    2.602800158680e-01
   172   -1.586649649405e-01
   173    4.557838435958e-01
   174   -4.843303320108e-01
   175    2.707935828670e-01
   176    2.450603319810e-01
   177   -3.576429929384e-02
   178    4.875580312550e-02
   179   -1.163458953992e-01
   180    6.949862890978e-02
   181    2.590186001994e-02
   182    1.883595795648e+00
   183   -9.192778450624e-01
   184    6.124056618533e-01
   185    3.454131133799e-01
   186    1.045575944361e-01
   187    6.189972724714e-01
   188   -6.754092810630e-02
   189    2.840175329925e-01
   190    2.163175599725e-01
   191    5.308698012672e-03
   192    2.013974672322e-01
   193   -1.074280976452e-01
   194   -6.285082697034e-02
   195    8.898262365637e-02
   196    4.416020259088e-02
   197    1.894801370552e-01
   198    7.675994259410e-02
   199   -1.868774007013e-01
   200   -5.952195434299e-02
   201    1.215651155646e-01
   202   -1.031596729418e-01
   203    2.938079692051e-01
   204    1.224911038844e-01
   205   -1.266611377790e-01
   206   -9.844538822501e-02
   207   -2.779483245735e-01
   208   -1.211063237272e-01
   209   -9.303322895245e-02
   210    7.993326514090e-02
   211   -1.340753206909e-01
   212   -7.892794634717e-02
   213    2.267458526412e-01
   214   -7.219738091400e-04
Sym=X
Ene= 3.178464
Spin=Alpha
Occup=0
     1   -2.299507646418e-05
     2   -4.666212641013e-05
     3   -1.215693164476e-04
     4    1.083733764112e-02
     5    1.154392201692e-01
     6   -2.824425641679e-05
     7   -6.106621173015e-01
     8    1.481756473216e+00
     9   -4.394942778459e-04
    10    1.951868207267e-02
    11   -9.913182614957e-03
    12   -4.092278978736e-05
    13   -7.978411488317e-06
    14    2.654215230389e-02
    15    5.223927678844e-02
    16    5.711722781093e-02
    17   -4.575720651707e-02
    18    6.213198531777e-05
    19   -7.117072728505e-01
    20   -1.164796699650e+00
    21   -9.661724803202e-01
    22    7.913488793209e-01
    23    4.034731918077e-02
    24    1.976747740123e-01
    25    1.722328199767e-01
    26    1.190319998598e-01
    27    3.371993238513e-02
    28   -2.064593713971e+00
    29    5.204603447146e-01
    30   -2.593374524088e-01
    31    7.292685035172e-01
    32    3.118537170223e-01
    33   -5.876937171012e-03
    34   -1.100017271893e-01
    35   -1.772566049660e-01
    36   -4.376545683790e-01
    37   -1.955525616188e-02
    38   -1.697716570939e-01
    39    3.972864256041e-02
    40   -1.760062001755e-02
    41    4.841084318251e-03
    42    1.038339139098e+00
    43   -2.945981718299e-01
    44   -1.614788121963e-01
    45   -4.147206492690e-01
    46   -4.514054128616e-02
    47    3.592585217535e-02
    48    4.423177326369e-02
    49    1.134871503946e-01
    50   -1.081387081186e-01
    51    3.965601319968e-02
    52    1.114967012451e-01
    53    4.590258614997e-02
    54   -1.563695553434e-01
    55   -3.377488498221e-02
    56   -2.607439435686e+00
    57    5.011184133209e-01
    58    1.567049295544e-01
    59   -9.508905381482e-01
    60    1.763927646252e-01
    61   -1.645641701904e-02
    62    2.521798007286e-02
    63    3.389014108050e-01
    64    6.910005588283e-02
    65   -2.701243114835e-02
    66   -9.423659363603e-03
    67   -1.700451760608e-01
    68   -1.315312228821e-01
    69    3.022750246493e-02
    70    1.805104455607e+00
    71    1.727569933019e-03
    72   -5.394132035448e-01
    73    5.292046175310e-01
    74   -2.752536871292e-01
    75   -5.152197298254e-02
    76    1.089214417534e-01
    77    1.307548631643e-01
    78    3.104373716413e-01
    79   -2.555098192707e-02
    80    2.082660133271e-01
    81    2.063408219202e-01
    82    1.053591264360e-01
    83    6.636369770802e-02
    84    1.748587017320e+00
    85    7.661609782402e-01
    86    7.208822494283e-01
    87   -2.579298889467e-01
    88    1.559931120420e-01
    89    6.182136799271e-01
    90    1.480290763596e-01
    91    3.403382496480e-01
    92   -1.123425197621e-01
    93    3.602694515848e-02
    94   -7.367964571754e-03
    95   -9.913495337280e-02
    96   -4.301275052888e-02
    97   -3.259803869242e-02
    98   -1.803263689080e+00
    99   -9.252406162059e-01
   100   -4.725651977089e-01
   101   -2.782173791925e-01
   102   -1.100599448342e-01
   103    3.489544768161e-01
   104    4.865746109281e-01
   105    3.153961013830e-01
   106   -1.229457415598e-01
   107   -2.075852352122e-02
   108   -2.799860817565e-02
   109   -1.238689689690e-02
   110    1.651999502277e-01
   111   -3.846013182462e-02
   112    1.024961329427e+00
   113    1.976732182369e-01
   114    4.942122465621e-01
   115   -3.142581094643e-01
   116   -2.662555612359e-01
   117    1.483630593573e-01
   118   -6.891053571118e-02
   119   -3.166613753962e-01
   120   -2.111718739416e-02
   121   -1.268307882865e-02
   122   -1.019738177887e-01
   123   -4.017919784546e-02
   124    4.292930447935e-02
   125    3.636296385511e-03
   126    8.040568854031e-01
   127   -3.501930948878e-01
   128    2.408238378837e-01
   129    4.220833298563e-01
   130    9.843613632778e-02
   131    3.847957498439e-02
   132    9.726909507919e-02
   133    2.626139207984e-02
   134    9.118888201586e-03
   135    2.692145127094e-02
   136   -6.698808023148e-02
   137    1.553999788593e-02
   138    1.482093609811e-01
   139   -4.482313253877e-02
   140   -1.614800849761e+00
   141   -2.323060162417e-01
   142    8.887024252581e-01
   143    1.930794788935e-01
   144   -1.193902079090e-01
   145    1.511786839958e-01
   146    4.944600858387e-01
   147    5.999619509377e-02
   148   -2.677971412635e-01
   149   -2.595923109846e-02
   150    7.719533581229e-02
   151    8.680509263047e-03
   152   -1.273087992087e-01
   153    1.250754640192e-02
   154    1.460055312772e+00
   155   -6.926423743059e-02
   156   -8.719336028378e-01
   157    3.202630932090e-01
   158    7.140977285046e-02
   159   -1.884580620653e-01
   160    4.420379537804e-01
   161    2.764072156765e-02
   162   -2.790773946450e-01
   163   -1.392620007762e-03
   164   -1.409102479424e-01
   165    7.361235083482e-02
   166   -3.826768524738e-02
   167   -2.143904432441e-02
   168   -1.323329002891e-01
   169    1.207044482279e-01
   170   -5.926160275562e-02
   171    6.526595592246e-02
   172   -3.644450193180e-02
   173    8.387643296658e-02
   174   -8.256720064790e-02
   175    6.507055613069e-02
   176    5.236387786963e-02
   177   -1.001930352383e-02
   178   -6.994434097976e-02
   179    2.803422629277e-02
   180    8.107449848436e-03
   181    2.008173492625e-02
   182    3.412946297056e-01
   183   -1.501144978022e-01
   184    6.872907638066e-02
   185   -4.164265360535e-02
   186    3.854274046748e-02
   187    1.177507793156e-01
   188   -9.122915342587e-04
   189    3.577529407402e-02
   190    4.788539288336e-02
   191    1.433707354951e-01
   192   -2.800693658016e-03
   193   -2.776921139736e-01
   194   -1.050299855198e-01
   195    2.700018932323e-01
   196    1.142004925525e-01
   197   -2.117298323460e-01
   198   -9.543868119697e-02
   199    2.315094515642e-01
   200    1.070404168369e-01
   201   -7.611460484611e-02
   202   -1.731050723126e-01
   203    4.574328693356e-02
   204   -1.938960250612e-03
   205   -6.704359180624e-02
   206    1.757762973655e-01
   207   -5.787939608274e-02
   208   -1.885105376398e-02
   209   -2.083879683559e-01
   210   -4.504746010135e-02
   211    1.845186694300e-01
   212   -4.653453324347e-02
   213    2.358627010065e-02
   214    9.176678817374e-02
Sym=X
Ene= 8.289355
Spin=Alpha
Occup=0
     1    4.243290407846e+00
     2    3.521605877927e+00
     3   -2.632863547585e+00
     4    2.606773730357e-06
     5    3.390565998677e-06
     6   -9.628259057992e-02
     7    2.110056932446e-05
     8   -1.800297587071e-05
     9    1.111542518403e-03
    10   -3.185253756664e-06
    11   -3.701371752115e-06
    12    4.293709476279e-02
    13   -2.721015551458e-02
    14    5.163402939531e-07
    15    4.486670478932e-06
    16    2.702352644615e-06
    17    3.462071596031e-07
    18   -3.741484271414e-01
    19    2.270746089260e-05
    20   -9.343527735244e-06
    21    1.542210220189e-05
    22   -2.958872026853e-06
    23    4.416284464396e-04
    24   -3.753321292619e-02
    25   -2.158913887223e-02
    26    4.408235916281e-02
    27   -5.997988863696e-02
    28   -1.416581460419e-01
    29    4.758646328059e-01
    30   -1.054415188288e-01
    31    6.002428936065e-01
    32    3.685091775663e-02
    33   -1.668294405922e-03
    34    1.431908108573e-02
    35   -3.398150675037e-02
    36   -7.041152129227e-02
    37    4.423353418631e-04
    38   -3.752105542339e-02
    39   -2.738299908038e-02
    40   -4.073751052146e-02
    41   -5.998099143645e-02
    42   -1.417113456370e-01
    43   -1.466102178994e-01
    44    4.648449907268e-01
    45    6.002634223107e-01
    46    3.685149059890e-02
    47   -1.156646828127e-02
    48   -8.604574784709e-03
    49   -4.398910569015e-02
    50    6.463478982596e-02
    51    5.625862594104e-03
    52    2.823592655283e-02
    53   -1.054163589677e-01
    54   -7.037489692825e-02
    55    1.256364978338e-01
    56   -3.640560568720e-01
    57    8.863298367751e-01
    58   -2.982932222048e-01
    59   -1.333948057181e+00
    60    2.091641870204e-02
    61    3.570095070020e-02
    62    3.694930476043e-02
    63    6.751393781839e-02
    64    3.225437769084e-03
    65    5.625127735123e-03
    66    2.821805265408e-02
    67    1.136434334476e-01
    68   -5.611112487472e-02
    69    1.256319081259e-01
    70   -3.640232677547e-01
    71   -1.848251719817e-01
    72    9.167244025952e-01
    73   -1.333932656100e+00
    74    2.091489102340e-02
    75   -4.985349553643e-02
    76    1.244098725321e-02
    77   -3.096390678166e-02
    78   -6.007970860668e-02
    79   -1.593367729584e-02
    80   -1.882756152762e-01
    81    3.126677610661e-02
    82   -7.839252369648e-02
    83    1.366955816022e-01
    84    2.365095539202e-01
    85    5.236752667464e-01
    86    5.063707767385e-01
    87   -1.526642574154e-01
    88   -1.955631990291e-02
    89    4.412752191339e-02
    90   -3.834632322176e-03
    91    3.439539164552e-02
    92    5.971540394434e-02
    93   -2.774300268239e-02
    94   -2.923787724404e-01
    95   -8.006524418246e-02
    96    3.576910400846e-02
    97   -1.305833889067e-01
    98    1.137929745097e+00
    99    1.097264771898e+00
   100    2.837483066221e-01
   101    6.654599934165e-01
   102   -6.747631168562e-03
   103    1.304471252950e-02
   104   -4.035177713341e-02
   105    1.958657113201e-02
   106    5.614101578989e-02
   107    4.409770267758e-04
   108   -3.753683429923e-02
   109    4.897027311105e-02
   110   -3.343612514680e-03
   111   -5.998213203593e-02
   112   -1.416290330202e-01
   113   -3.292441548695e-01
   114   -3.594003452838e-01
   115    6.002461058772e-01
   116    3.685168488190e-02
   117    1.323163011159e-02
   118   -5.713017850835e-03
   119    7.796882067389e-02
   120    5.778603030546e-03
   121    5.625606549683e-03
   122    2.823136535188e-02
   123   -8.234967027244e-03
   124    1.264756568143e-01
   125    1.256346347584e-01
   126   -3.639964305854e-01
   127   -7.014623926918e-01
   128   -6.184265370221e-01
   129   -1.333919516928e+00
   130    2.091440347084e-02
   131    1.415266901930e-02
   132   -4.939563498107e-02
   133   -3.654891982748e-02
   134    5.685443898791e-02
   135   -1.593334663628e-02
   136   -1.882671430891e-01
   137   -8.352183483218e-02
   138    1.211586900767e-02
   139    1.366941315619e-01
   140    2.364871767398e-01
   141    1.766758549898e-01
   142   -7.066913480622e-01
   143   -1.526527499787e-01
   144   -1.955794574591e-02
   145   -2.538346596186e-02
   146   -3.629617667117e-02
   147   -6.891365452977e-02
   148   -7.069686168059e-05
   149   -2.774354549940e-02
   150   -2.923797735285e-01
   151    7.100992460489e-02
   152    5.145168107583e-02
   153   -1.305836905606e-01
   154    1.137967276814e+00
   155   -3.029077676487e-01
   156   -1.092154823608e+00
   157    6.654748264609e-01
   158   -6.748844782520e-03
   159   -4.146696037468e-02
   160    8.877560713543e-03
   161   -5.841512357486e-02
   162   -1.110618648461e-02
   163   -1.593374347345e-02
   164   -1.882689294908e-01
   165    5.225244345183e-02
   166    6.627441516250e-02
   167    1.366944995526e-01
   168    2.365314431752e-01
   169   -7.003913479704e-01
   170    2.003379784127e-01
   171   -1.526699928872e-01
   172   -1.955849785051e-02
   173   -1.874086222990e-02
   174    4.013261527558e-02
   175    3.451963057459e-02
   176   -5.964514176509e-02
   177   -2.774208156214e-02
   178   -2.923689460552e-01
   179    9.053607078415e-03
   180   -8.722218223407e-02
   181   -1.305831515450e-01
   182    1.137868921531e+00
   183   -7.943268249929e-01
   184    8.083680665135e-01
   185    6.654559815846e-01
   186   -6.746816703000e-03
   187    2.842313131212e-02
   188    3.147120449846e-02
   189    3.882568149774e-02
   190   -4.503005637138e-02
   191   -2.401738320234e-01
   192   -4.749277038711e-01
   193    6.939002786765e-02
   194    5.506536016146e-01
   195    5.418332604173e-02
   196    3.549915543010e-01
   197    5.418073605482e-02
   198    3.549881056765e-01
   199    6.939026881472e-02
   200    5.506614361435e-01
   201   -2.401766299504e-01
   202   -4.749256826173e-01
   203    6.939016037346e-02
   204    5.506443856945e-01
   205   -2.401698575102e-01
   206   -4.749199008799e-01
   207    5.418376320289e-02
   208    3.550005618481e-01
   209   -2.447389423236e-01
   210   -4.098199898675e-03
   211   -2.447488072864e-01
   212   -4.098109609331e-03
   213   -2.447435780770e-01
   214   -4.097413045751e-03
[5D]

======= END OF MOLDEN-FORMATTED INPUT FILE =======


        *************************************************************
        *                                                           *
        *  Thank you very much for using Q-Chem.  Have a nice day.  *
        *                                                           *
        *************************************************************


