[Molden Format]
[Atoms] (Angs)
 Ir      1   77     -0.00000042      0.00000001     -0.02100677
  N      2    7     -0.97074192     -1.51623854      1.10043307
  N      3    7      1.79847180     -0.08256754      1.10043354
  C      4    6      0.50047415      1.59133834     -1.10129669
  C      5    6     -1.62838108     -0.36224485     -1.10129704
  C      6    6     -2.08241140     -1.92920594      0.57811288
  C      7    6     -2.48260221     -1.32466504     -0.64417719
  N      8    7     -0.82773173      1.59880610      1.10043309
  C      9    6      1.12790621     -1.22909348     -1.10129657
  C     10    6     -0.62953843      2.76802323      0.57811312
  C     11    6      0.09411229      2.81232684     -0.64417676
  C     12    6      2.71194826     -0.83881728      0.57811369
  C     13    6      2.38849897     -1.48766191     -0.64417636
  H     14    1     -1.87697159      0.13001811     -2.04249709
  H     15    1     -3.39310977     -1.63229657     -1.14683734
  H     16    1     -2.67070343     -2.70817793      1.06369278
  H     17    1     -1.00999302      3.66698948      1.06369305
  H     18    1      0.28294630      3.75466955     -1.14683673
  H     19    1      1.05108529      1.56049249     -2.04249659
  H     20    1      3.11016278     -2.12237297     -1.14683624
  H     21    1      0.82588606     -1.69051060     -2.04249662
  H     22    1      3.68070463     -0.95881165      1.06369386
  H     23    1     -0.69077005     -1.95748252      1.96594312
  H     24    1     -1.34983981      1.57696790      1.96594300
  H     25    1      2.04060758      0.38051465      1.96594358
[5D]
[GTO]
1    0
S    3    1.000000
   2.35000000E+00   -1.67846420E+00 
   1.58200000E+00    2.09525530E+00 
   5.01800000E-01    4.16293400E-01 
S    4    1.000000
   2.35000000E+00    1.64644670E+00 
   1.58200000E+00   -2.27481500E+00 
   5.01800000E-01   -1.04943570E+00 
   2.50000000E-01    1.21677910E+00 
S    1    1.000000
   5.98000000E-02    1.00000000E+00 
P    3    1.000000
   2.79200000E+00   -3.88921200E-01 
   1.54100000E+00    9.07751600E-01 
   5.28500000E-01    4.69144300E-01 
P    2    1.000000
   5.10000000E-01   -1.17066900E-01 
   9.80000000E-02    1.04890020E+00 
P    1    1.000000
   2.90000000E-02    1.00000000E+00 
D    2    1.000000
   1.24000000E+00    5.08702200E-01 
   4.64700000E-01    5.86210200E-01 
D    1    1.000000
   1.52900000E-01    1.00000000E+00 

2    0
S    6    1.000000
   4.17351100E+03    1.83480000E-03 
   6.27457900E+02    1.39950000E-02 
   1.42902100E+02    6.85870000E-02 
   4.02343300E+01    2.32241000E-01 
   1.28202100E+01    4.69070000E-01 
   4.39043700E+00    3.60455000E-01 
SP   3    1.000000
   1.16263580E+01   -1.14961000E-01   6.75800000E-02 
   2.71628000E+00   -1.69118000E-01   3.23907000E-01 
   7.72218000E-01    1.14585200E+00   7.40895000E-01 
SP   1    1.000000
   2.12031300E-01    1.00000000E+00   1.00000000E+00 
D    1    1.000000
   8.00000000E-01    1.00000000E+00 

3    0
S    6    1.000000
   4.17351100E+03    1.83480000E-03 
   6.27457900E+02    1.39950000E-02 
   1.42902100E+02    6.85870000E-02 
   4.02343300E+01    2.32241000E-01 
   1.28202100E+01    4.69070000E-01 
   4.39043700E+00    3.60455000E-01 
SP   3    1.000000
   1.16263580E+01   -1.14961000E-01   6.75800000E-02 
   2.71628000E+00   -1.69118000E-01   3.23907000E-01 
   7.72218000E-01    1.14585200E+00   7.40895000E-01 
SP   1    1.000000
   2.12031300E-01    1.00000000E+00   1.00000000E+00 
D    1    1.000000
   8.00000000E-01    1.00000000E+00 

4    0
S    6    1.000000
   3.04752490E+03    1.83470000E-03 
   4.57369510E+02    1.40373000E-02 
   1.03948690E+02    6.88426000E-02 
   2.92101550E+01    2.32184400E-01 
   9.28666300E+00    4.67941300E-01 
   3.16392700E+00    3.62312000E-01 
SP   3    1.000000
   7.86827240E+00   -1.19332400E-01   6.89991000E-02 
   1.88128850E+00   -1.60854200E-01   3.16424000E-01 
   5.44249300E-01    1.14345640E+00   7.44308300E-01 
SP   1    1.000000
   1.68714400E-01    1.00000000E+00   1.00000000E+00 
D    1    1.000000
   8.00000000E-01    1.00000000E+00 

5    0
S    6    1.000000
   3.04752490E+03    1.83470000E-03 
   4.57369510E+02    1.40373000E-02 
   1.03948690E+02    6.88426000E-02 
   2.92101550E+01    2.32184400E-01 
   9.28666300E+00    4.67941300E-01 
   3.16392700E+00    3.62312000E-01 
SP   3    1.000000
   7.86827240E+00   -1.19332400E-01   6.89991000E-02 
   1.88128850E+00   -1.60854200E-01   3.16424000E-01 
   5.44249300E-01    1.14345640E+00   7.44308300E-01 
SP   1    1.000000
   1.68714400E-01    1.00000000E+00   1.00000000E+00 
D    1    1.000000
   8.00000000E-01    1.00000000E+00 

6    0
S    6    1.000000
   3.04752490E+03    1.83470000E-03 
   4.57369510E+02    1.40373000E-02 
   1.03948690E+02    6.88426000E-02 
   2.92101550E+01    2.32184400E-01 
   9.28666300E+00    4.67941300E-01 
   3.16392700E+00    3.62312000E-01 
SP   3    1.000000
   7.86827240E+00   -1.19332400E-01   6.89991000E-02 
   1.88128850E+00   -1.60854200E-01   3.16424000E-01 
   5.44249300E-01    1.14345640E+00   7.44308300E-01 
SP   1    1.000000
   1.68714400E-01    1.00000000E+00   1.00000000E+00 
D    1    1.000000
   8.00000000E-01    1.00000000E+00 

7    0
S    6    1.000000
   3.04752490E+03    1.83470000E-03 
   4.57369510E+02    1.40373000E-02 
   1.03948690E+02    6.88426000E-02 
   2.92101550E+01    2.32184400E-01 
   9.28666300E+00    4.67941300E-01 
   3.16392700E+00    3.62312000E-01 
SP   3    1.000000
   7.86827240E+00   -1.19332400E-01   6.89991000E-02 
   1.88128850E+00   -1.60854200E-01   3.16424000E-01 
   5.44249300E-01    1.14345640E+00   7.44308300E-01 
SP   1    1.000000
   1.68714400E-01    1.00000000E+00   1.00000000E+00 
D    1    1.000000
   8.00000000E-01    1.00000000E+00 

8    0
S    6    1.000000
   4.17351100E+03    1.83480000E-03 
   6.27457900E+02    1.39950000E-02 
   1.42902100E+02    6.85870000E-02 
   4.02343300E+01    2.32241000E-01 
   1.28202100E+01    4.69070000E-01 
   4.39043700E+00    3.60455000E-01 
SP   3    1.000000
   1.16263580E+01   -1.14961000E-01   6.75800000E-02 
   2.71628000E+00   -1.69118000E-01   3.23907000E-01 
   7.72218000E-01    1.14585200E+00   7.40895000E-01 
SP   1    1.000000
   2.12031300E-01    1.00000000E+00   1.00000000E+00 
D    1    1.000000
   8.00000000E-01    1.00000000E+00 

9    0
S    6    1.000000
   3.04752490E+03    1.83470000E-03 
   4.57369510E+02    1.40373000E-02 
   1.03948690E+02    6.88426000E-02 
   2.92101550E+01    2.32184400E-01 
   9.28666300E+00    4.67941300E-01 
   3.16392700E+00    3.62312000E-01 
SP   3    1.000000
   7.86827240E+00   -1.19332400E-01   6.89991000E-02 
   1.88128850E+00   -1.60854200E-01   3.16424000E-01 
   5.44249300E-01    1.14345640E+00   7.44308300E-01 
SP   1    1.000000
   1.68714400E-01    1.00000000E+00   1.00000000E+00 
D    1    1.000000
   8.00000000E-01    1.00000000E+00 

10    0
S    6    1.000000
   3.04752490E+03    1.83470000E-03 
   4.57369510E+02    1.40373000E-02 
   1.03948690E+02    6.88426000E-02 
   2.92101550E+01    2.32184400E-01 
   9.28666300E+00    4.67941300E-01 
   3.16392700E+00    3.62312000E-01 
SP   3    1.000000
   7.86827240E+00   -1.19332400E-01   6.89991000E-02 
   1.88128850E+00   -1.60854200E-01   3.16424000E-01 
   5.44249300E-01    1.14345640E+00   7.44308300E-01 
SP   1    1.000000
   1.68714400E-01    1.00000000E+00   1.00000000E+00 
D    1    1.000000
   8.00000000E-01    1.00000000E+00 

11    0
S    6    1.000000
   3.04752490E+03    1.83470000E-03 
   4.57369510E+02    1.40373000E-02 
   1.03948690E+02    6.88426000E-02 
   2.92101550E+01    2.32184400E-01 
   9.28666300E+00    4.67941300E-01 
   3.16392700E+00    3.62312000E-01 
SP   3    1.000000
   7.86827240E+00   -1.19332400E-01   6.89991000E-02 
   1.88128850E+00   -1.60854200E-01   3.16424000E-01 
   5.44249300E-01    1.14345640E+00   7.44308300E-01 
SP   1    1.000000
   1.68714400E-01    1.00000000E+00   1.00000000E+00 
D    1    1.000000
   8.00000000E-01    1.00000000E+00 

12    0
S    6    1.000000
   3.04752490E+03    1.83470000E-03 
   4.57369510E+02    1.40373000E-02 
   1.03948690E+02    6.88426000E-02 
   2.92101550E+01    2.32184400E-01 
   9.28666300E+00    4.67941300E-01 
   3.16392700E+00    3.62312000E-01 
SP   3    1.000000
   7.86827240E+00   -1.19332400E-01   6.89991000E-02 
   1.88128850E+00   -1.60854200E-01   3.16424000E-01 
   5.44249300E-01    1.14345640E+00   7.44308300E-01 
SP   1    1.000000
   1.68714400E-01    1.00000000E+00   1.00000000E+00 
D    1    1.000000
   8.00000000E-01    1.00000000E+00 

13    0
S    6    1.000000
   3.04752490E+03    1.83470000E-03 
   4.57369510E+02    1.40373000E-02 
   1.03948690E+02    6.88426000E-02 
   2.92101550E+01    2.32184400E-01 
   9.28666300E+00    4.67941300E-01 
   3.16392700E+00    3.62312000E-01 
SP   3    1.000000
   7.86827240E+00   -1.19332400E-01   6.89991000E-02 
   1.88128850E+00   -1.60854200E-01   3.16424000E-01 
   5.44249300E-01    1.14345640E+00   7.44308300E-01 
SP   1    1.000000
   1.68714400E-01    1.00000000E+00   1.00000000E+00 
D    1    1.000000
   8.00000000E-01    1.00000000E+00 

14    0
S    3    1.000000
   1.87311370E+01    3.34946000E-02 
   2.82539370E+00    2.34726950E-01 
   6.40121700E-01    8.13757330E-01 
S    1    1.000000
   1.61277800E-01    1.00000000E+00 

15    0
S    3    1.000000
   1.87311370E+01    3.34946000E-02 
   2.82539370E+00    2.34726950E-01 
   6.40121700E-01    8.13757330E-01 
S    1    1.000000
   1.61277800E-01    1.00000000E+00 

16    0
S    3    1.000000
   1.87311370E+01    3.34946000E-02 
   2.82539370E+00    2.34726950E-01 
   6.40121700E-01    8.13757330E-01 
S    1    1.000000
   1.61277800E-01    1.00000000E+00 

17    0
S    3    1.000000
   1.87311370E+01    3.34946000E-02 
   2.82539370E+00    2.34726950E-01 
   6.40121700E-01    8.13757330E-01 
S    1    1.000000
   1.61277800E-01    1.00000000E+00 

18    0
S    3    1.000000
   1.87311370E+01    3.34946000E-02 
   2.82539370E+00    2.34726950E-01 
   6.40121700E-01    8.13757330E-01 
S    1    1.000000
   1.61277800E-01    1.00000000E+00 

19    0
S    3    1.000000
   1.87311370E+01    3.34946000E-02 
   2.82539370E+00    2.34726950E-01 
   6.40121700E-01    8.13757330E-01 
S    1    1.000000
   1.61277800E-01    1.00000000E+00 

20    0
S    3    1.000000
   1.87311370E+01    3.34946000E-02 
   2.82539370E+00    2.34726950E-01 
   6.40121700E-01    8.13757330E-01 
S    1    1.000000
   1.61277800E-01    1.00000000E+00 

21    0
S    3    1.000000
   1.87311370E+01    3.34946000E-02 
   2.82539370E+00    2.34726950E-01 
   6.40121700E-01    8.13757330E-01 
S    1    1.000000
   1.61277800E-01    1.00000000E+00 

22    0
S    3    1.000000
   1.87311370E+01    3.34946000E-02 
   2.82539370E+00    2.34726950E-01 
   6.40121700E-01    8.13757330E-01 
S    1    1.000000
   1.61277800E-01    1.00000000E+00 

23    0
S    3    1.000000
   1.87311370E+01    3.34946000E-02 
   2.82539370E+00    2.34726950E-01 
   6.40121700E-01    8.13757330E-01 
S    1    1.000000
   1.61277800E-01    1.00000000E+00 

24    0
S    3    1.000000
   1.87311370E+01    3.34946000E-02 
   2.82539370E+00    2.34726950E-01 
   6.40121700E-01    8.13757330E-01 
S    1    1.000000
   1.61277800E-01    1.00000000E+00 

25    0
S    3    1.000000
   1.87311370E+01    3.34946000E-02 
   2.82539370E+00    2.34726950E-01 
   6.40121700E-01    8.13757330E-01 
S    1    1.000000
   1.61277800E-01    1.00000000E+00 

[MO]
Ene= -14.247732
Spin=Alpha
Occup=1
     1   -2.471454853656e-05
     2    2.200024282690e-04
     3    1.750837107709e-03
     4    3.431299815592e-04
     5   -1.471896184462e-04
     6    2.001489427685e-04
     7    8.018865224636e-03
     8   -3.717088000845e-03
     9    2.170409051506e-03
    10   -8.834516736675e-04
    11    5.262445418571e-05
    12   -3.883720507691e-04
    13    1.679630901708e-05
    14   -7.781620780769e-05
    15    2.474628178971e-05
    16   -2.437172851152e-04
    17    5.439476728695e-05
    18   -3.249291150593e-04
    19    6.571642653975e-03
    20    1.136814526999e-03
    21    6.656341653118e-03
    22   -1.205504001000e-03
    23   -2.933009114379e-01
    24   -9.813106113075e-03
    25    4.625280786146e-04
    26    5.313551644095e-05
    27    1.242302323280e-04
    28    1.089182586529e-02
    29   -1.981453074306e-03
    30    1.542286371819e-03
    31   -2.894506172099e-03
    32   -9.267831855454e-06
    33   -7.930370193428e-05
    34   -6.270880663842e-05
    35   -1.218256368500e-04
    36    5.494558404167e-05
    37    9.495288641977e-01
    38    3.131429270852e-02
    39    9.071698287631e-04
    40   -5.777577701544e-04
    41   -2.496020491194e-04
    42   -3.021095448354e-02
    43    1.524736985590e-03
    44    2.835956171914e-03
    45    5.499357675634e-03
    46   -8.939976950593e-05
    47   -4.455954893812e-04
    48    4.190903699097e-05
    49   -2.363682917552e-04
    50   -9.151802494367e-05
    51   -3.053861689921e-05
    52   -4.599733947005e-05
    53    1.500861074500e-05
    54   -1.981948522693e-04
    55    3.693602530611e-05
    56    4.410024219854e-03
    57   -2.083620207428e-03
    58   -7.153084701205e-04
    59    2.249568302210e-03
    60   -7.372028104394e-06
    61   -2.246772619806e-04
    62    6.639775168808e-06
    63   -1.494948962302e-04
    64    9.158976974767e-05
    65    1.303546966922e-05
    66   -1.332390377319e-04
    67   -7.989286349984e-05
    68   -7.497672848036e-05
    69   -8.195402259963e-05
    70   -4.128309278293e-03
    71   -1.372351548101e-03
    72    5.143242964783e-04
    73   -2.162948743923e-03
    74    4.107495878131e-06
    75   -1.136170837364e-04
    76   -2.795951627307e-05
    77   -7.724023004843e-05
    78   -2.070079947339e-04
    79   -1.150999736083e-05
    80    2.605928845482e-04
    81    5.392860252572e-05
    82   -4.086472892912e-05
    83    7.242240964444e-05
    84   -6.981461985167e-03
    85   -2.431270719425e-03
    86   -2.870156487708e-03
    87    1.243093490271e-03
    88   -9.392402825904e-05
    89    1.985916655584e-04
    90    1.679761595108e-04
    91    2.270993454497e-04
    92    4.790216571519e-05
    93   -5.647696015892e-05
    94   -3.851476879766e-04
    95   -4.621337857438e-05
    96   -8.416386490975e-05
    97    1.355803465041e-05
    98    4.540050824081e-03
    99    2.970325732756e-03
   100    7.202416909533e-04
   101    2.264562018466e-03
   102    6.094109456537e-05
   103    3.160407901874e-05
   104   -7.194744857694e-05
   105   -1.488156557051e-05
   106   -4.578236640222e-06
   107   -5.899741237028e-02
   108   -2.172845545196e-03
   109    1.583980406717e-04
   110    2.062082729648e-06
   111    1.070333736342e-04
   112    3.382179663316e-03
   113   -1.200698231037e-04
   114   -1.570021933864e-03
   115   -1.417774597170e-03
   116    9.771563172350e-05
   117   -1.249738084239e-04
   118    1.517955578755e-04
   119   -1.549563159964e-04
   120    5.301643930770e-06
   121   -3.680655621527e-06
   122   -1.496540219421e-04
   123    2.611451649468e-04
   124   -1.957210279835e-04
   125   -1.010963852327e-05
   126    2.619091880443e-03
   127   -4.926837285927e-04
   128   -8.477657162441e-06
   129   -2.985042598942e-04
   130   -7.515219431052e-05
   131   -2.117842363235e-05
   132   -1.153073521463e-04
   133    1.219728373396e-04
   134   -2.492726035656e-05
   135   -2.478178660124e-05
   136   -5.558685603174e-05
   137    4.025962866642e-05
   138   -2.110012601671e-05
   139    1.513072926164e-05
   140    9.650503558616e-04
   141    1.534545909776e-04
   142   -2.578499358362e-04
   143    7.891793150032e-05
   144    3.236685380643e-05
   145   -2.080165881774e-05
   146   -6.982542836102e-05
   147   -6.876965467912e-05
   148   -2.884909955551e-05
   149    2.690903482524e-06
   150   -5.026754087949e-06
   151   -4.203394612392e-05
   152    7.645784698937e-05
   153    7.874548225069e-05
   154   -1.306068288152e-03
   155    2.063240395041e-04
   156    7.851014003536e-04
   157   -4.218986840373e-04
   158   -2.061329998174e-06
   159   -2.184621606645e-05
   160   -4.210375000209e-05
   161    2.933150959633e-05
   162    3.078032272230e-05
   163    8.922896948830e-05
   164   -7.877576813231e-04
   165    4.057761286319e-04
   166   -3.888230891815e-04
   167   -3.168415206342e-04
   168    1.188118791863e-02
   169   -7.033623291418e-03
   170    2.426170649245e-03
   171   -1.208214990501e-03
   172    2.744368651996e-04
   173    7.646684377345e-04
   174   -4.095950917098e-04
   175    2.024390552171e-05
   176    7.498640155480e-04
   177    9.574888023143e-05
   178    6.754749917619e-04
   179   -2.796899601885e-04
   180   -4.661932854937e-05
   181   -2.452152115737e-04
   182   -6.017680523559e-03
   183    3.474670597470e-03
   184   -3.073763042203e-03
   185   -2.388891499386e-03
   186   -1.040268548088e-04
   187   -1.185472642109e-05
   188   -1.215631449087e-04
   189    6.598863661892e-05
   190   -2.781447254883e-05
   191    9.568450061266e-06
   192   -7.096983037349e-04
   193    2.468138564782e-04
   194    8.654287575231e-04
   195    2.855933505101e-05
   196   -9.940902388702e-04
   197   -9.838653283599e-06
   198   -2.271921189128e-05
   199   -4.800888915186e-05
   200   -2.109263707714e-04
   201    1.287791078083e-04
   202    8.411105488498e-04
   203   -3.105326318180e-04
   204   -1.358836889149e-03
   205   -1.213854009146e-04
   206   -8.522050931044e-04
   207   -1.176845391854e-04
   208    1.861794361204e-03
   209    4.184878083316e-04
   210   -4.133463234060e-04
   211    1.401915635025e-05
   212    1.187504602832e-04
   213   -4.196876802171e-04
   214    1.752939630970e-03
Sym=X
Ene= -14.247719
Spin=Alpha
Occup=1
     1   -4.407162155922e-05
     2    3.939386388823e-04
     3    3.133624449025e-03
     4   -2.015303572585e-04
     5   -2.384969783846e-04
     6    3.582431586796e-04
     7   -4.931402965769e-03
     8   -5.506921229774e-03
     9    3.885037753619e-03
    10    2.577828135780e-04
    11    6.938242630437e-04
    12   -6.953018395877e-04
    13    3.009257042902e-05
    14    3.878272403082e-05
    15    5.622538979809e-05
    16    1.598337064219e-05
    17   -2.082740174857e-04
    18   -5.817609130114e-04
    19   -6.940424632100e-04
    20   -5.534139132882e-03
    21   -6.599558233894e-04
    22    5.619060600637e-03
    23    9.423194005148e-01
    24    3.096658226723e-02
    25   -9.045257276988e-04
    26   -5.142443129406e-04
    27   -2.072073104233e-04
    28   -2.898014757574e-02
    29    1.378678857261e-03
    30   -2.304159183074e-03
    31    4.705760927659e-03
    32   -8.483237581290e-05
    33    2.457916789289e-04
    34    3.489392429884e-04
    35    1.897930510598e-04
    36   -1.288863394656e-04
    37    2.814289480010e-01
    38    8.991938959683e-03
    39    2.455715036169e-04
    40   -3.274265777355e-04
    41    4.055224511187e-05
    42   -6.901871159065e-03
    43   -8.945722340759e-04
    44    1.706590297416e-03
    45    1.449981563796e-04
    46    7.058512805490e-05
    47    4.802637090635e-05
    48    4.695819791858e-05
    49    3.966882057549e-06
    50   -1.787836406060e-04
    51    8.088635183118e-07
    52   -2.042328645966e-04
    53   -1.357243535176e-05
    54    1.056575555086e-04
    55   -7.956845311856e-05
    56   -2.225207810715e-03
    57    4.405371637612e-04
    58    6.597397589639e-04
    59   -1.553759960526e-03
    60   -1.476988022313e-05
    61   -3.648358035104e-05
    62    1.394745886717e-04
    63    1.656314627316e-04
    64    6.133556320042e-05
    65   -5.126175646201e-06
    66   -2.382628399912e-04
    67   -3.412164045589e-04
    68   -1.545597303419e-04
    69   -3.906281022436e-05
    70    2.146873373946e-03
    71    3.559821128336e-05
    72    4.015747949401e-04
    73   -7.931405758023e-04
    74   -8.547408220604e-05
    75   -1.280339891206e-04
    76    3.170170438801e-05
    77   -4.512522407928e-05
    78    6.284506487065e-05
    79    9.139717024417e-05
    80   -7.968234171792e-04
    81   -5.920113473000e-04
    82   -1.868002354341e-04
    83   -3.264400035563e-04
    84    1.072284082132e-02
    85    5.381080828956e-03
    86    4.371604463618e-03
    87   -8.199186578548e-04
    88    2.790259796196e-04
    89   -7.386827701040e-04
    90   -4.448156096928e-04
    91   -6.512218492875e-04
    92   -3.704745179264e-04
    93    8.521329226940e-05
    94    6.017459813076e-04
    95    8.358210382570e-05
    96    2.500299513704e-04
    97   -2.566056859044e-04
    98   -5.171157819669e-03
    99   -3.894958117125e-03
   100   -1.412169143641e-03
   101   -1.831112661674e-03
   102   -9.256859685264e-05
   103   -8.930748405137e-05
   104    5.020739268726e-05
   105   -1.402957346926e-05
   106    7.020371555208e-05
   107   -1.545835521819e-01
   108   -5.356714512311e-03
   109   -1.323696599869e-04
   110   -2.534747183100e-04
   111    1.341487428027e-04
   112    7.349731584058e-03
   113    1.903878153261e-03
   114    3.740080017567e-04
   115   -2.725556647132e-03
   116    1.248904936391e-05
   117   -3.059335540809e-05
   118    9.199282662444e-05
   119   -4.363627589536e-05
   120   -9.516511353121e-05
   121   -3.360656572836e-05
   122   -1.463612336292e-04
   123   -6.817339918705e-05
   124    6.341228815022e-06
   125    1.998939344593e-05
   126    5.272338571615e-03
   127    3.197907247635e-04
   128    2.148532974635e-03
   129    1.967441794066e-03
   130   -4.013307218423e-05
   131    1.429409696978e-04
   132    1.497183378351e-04
   133    1.731923048532e-05
   134   -1.737651784827e-04
   135   -4.572731458874e-06
   136    1.025389092383e-04
   137   -2.466200588751e-05
   138    7.892609480348e-05
   139    2.060654928969e-05
   140   -4.969456048807e-03
   141   -1.074981193961e-03
   142    2.344024757409e-03
   143    1.190151847723e-03
   144   -3.368033376116e-05
   145    3.764859885680e-05
   146   -1.345786869760e-04
   147   -6.835298512018e-05
   148    9.946399949054e-05
   149   -4.250493214124e-05
   150   -2.951456007630e-04
   151   -3.601588167623e-05
   152    7.942650405128e-05
   153   -3.405225149165e-06
   154    3.307069701277e-03
   155   -6.924734658528e-04
   156   -2.018759699648e-03
   157    1.881690773114e-03
   158    4.608048049729e-05
   159   -7.447467787108e-05
   160    2.469777425045e-06
   161    1.338155426991e-05
   162   -8.077377497989e-06
   163    7.975637633849e-06
   164   -3.489989403613e-04
   165    1.341710405800e-04
   166   -1.819386794775e-04
   167   -1.045843526042e-04
   168    4.747989586172e-03
   169   -2.595098479519e-03
   170    9.036950000255e-04
   171   -1.658216903208e-04
   172    1.356886215378e-04
   173    2.218626432658e-04
   174   -9.838011114883e-05
   175    6.089667145989e-05
   176    2.262656126703e-04
   177    3.241920986935e-05
   178    2.041881903387e-04
   179   -1.192154548234e-06
   180   -2.187483703809e-05
   181   -1.374838505822e-05
   182   -3.119665873582e-03
   183    1.709944736060e-03
   184   -1.507177134595e-03
   185   -1.028235824701e-03
   186   -3.432145696641e-05
   187   -2.420586872087e-05
   188    6.485663843028e-06
   189   -1.771610269387e-05
   190    2.632107227266e-06
   191   -1.063857216059e-04
   192   -1.097850486991e-03
   193   -2.572492778829e-04
   194   -1.218919357386e-03
   195   -1.239520142232e-04
   196    1.685821746402e-03
   197    2.811563998478e-06
   198   -7.403201046783e-04
   199    1.933344873327e-04
   200    6.010674261428e-04
   201    4.052652093825e-05
   202   -6.282422089258e-04
   203   -1.361562516383e-04
   204   -6.432066525497e-04
   205    9.618351237370e-05
   206    4.354999841621e-04
   207   -5.609256489693e-05
   208    5.674467346490e-04
   209   -2.937156407389e-04
   210    1.844683298372e-03
   211    3.923656221209e-04
   212   -4.040808384980e-05
   213   -7.570427071626e-05
   214    8.068117896939e-04
Sym=X
Ene= -14.247687
Spin=Alpha
Occup=1
     1   -5.015412427613e-05
     2    4.471288352171e-04
     3    3.557587392920e-03
     4    8.645817698674e-06
     5    2.825841174663e-04
     6    4.066996744692e-04
     7    3.973318980017e-04
     8    6.680643482125e-03
     9    4.410068852632e-03
    10    2.077106998644e-04
    11   -6.371405935173e-04
    12   -7.893291436058e-04
    13    3.414793997936e-05
    14    4.121763417887e-06
    15   -6.168181819387e-05
    16    1.058461008796e-04
    17    1.566774805798e-04
    18   -6.603461009367e-04
    19   -2.621910562833e-03
    20    4.315506870820e-03
    21   -2.693879069377e-03
    22   -4.356321210526e-03
    23    1.306981591537e-01
    24    3.973919447726e-03
    25   -2.137278045691e-04
    26    5.933349591946e-06
    27    9.660315827287e-05
    28   -1.619988823258e-03
    29    1.309548627248e-03
    30    5.675814087713e-04
    31   -1.098008606717e-03
    32    7.795701340652e-05
    33   -2.627369761662e-05
    34   -1.151136531827e-04
    35    1.081248962780e-04
    36    1.241530545054e-04
    37    1.013209209763e-01
    38    3.093823681679e-03
    39    9.282559982273e-05
    40    1.052087868532e-04
    41    6.211932904253e-05
    42   -8.426642272540e-04
    43   -1.269895615416e-04
    44   -1.206125914914e-03
    45   -1.210656972867e-03
    46   -1.949731938257e-05
    47   -3.853394573047e-05
    48   -1.159281672635e-05
    49    3.769306598500e-05
    50   -2.892329641561e-06
    51   -1.464845703484e-05
    52   -2.471261346306e-04
    53    4.411173023907e-05
    54    3.223260075566e-04
    55   -2.341452796954e-05
    56    3.756654783697e-03
    57   -3.173315459333e-04
    58   -5.109531063470e-04
    59   -2.796636405591e-05
    60   -9.055440647746e-05
    61    3.108831153093e-05
    62    9.032687161122e-05
    63   -9.172730214405e-05
    64   -5.122570784797e-05
    65   -3.085200463470e-05
    66   -1.741553268167e-04
    67    4.483975767488e-05
    68    4.837176314441e-05
    69   -5.924351011311e-07
    70    4.106329520446e-03
    71    1.364950802026e-03
    72   -1.292950798540e-03
    73    1.473084041580e-03
    74   -3.393378813501e-05
    75    3.701941202177e-05
    76   -2.190526685041e-04
    77    1.289152188543e-04
    78    3.932873051037e-05
    79   -2.446437977035e-06
    80   -2.229571294474e-04
    81   -1.714312598571e-04
    82   -2.367682180311e-05
    83   -6.148780343803e-05
    84    2.009188072136e-03
    85    1.014429966649e-03
    86    6.650965761716e-04
    87    2.667983699039e-04
    88    9.139291045635e-05
    89   -8.625485975779e-05
    90   -6.337406512430e-05
    91   -1.164030134607e-04
    92   -1.900053782387e-05
    93    1.010663551408e-05
    94    4.959412843946e-05
    95   -3.982784692835e-05
    96   -3.289118114515e-05
    97    1.032355371772e-05
    98   -1.485050404252e-03
    99   -1.055367613644e-03
   100   -4.316182013341e-04
   101   -2.477795216144e-04
   102   -1.015317803430e-05
   103    3.525577726489e-05
   104   -7.138943456471e-06
   105    3.537277692491e-06
   106   -2.447839392221e-05
   107    9.816803714657e-01
   108    3.221246435739e-02
   109    6.558660087691e-05
   110    1.110626550304e-03
   111   -1.957564718382e-04
   112   -2.992813027726e-02
   113   -3.001405391348e-03
   114   -5.465257018393e-04
   115    4.721634979383e-03
   116   -6.034421938529e-05
   117    1.525136892913e-04
   118   -3.675310965551e-04
   119   -2.562254670629e-05
   120    2.489528397735e-04
   121    2.433272129425e-06
   122   -2.472658287106e-04
   123    1.870616058259e-04
   124   -1.024751427980e-04
   125   -8.798856397104e-05
   126   -1.965457067040e-03
   127    1.941718985438e-04
   128   -9.204587420544e-04
   129   -1.875304464261e-03
   130   -3.487201744636e-05
   131    1.277719139483e-04
   132   -8.671865267530e-05
   133   -1.070414664876e-04
   134    1.245944589627e-04
   135    8.859245472784e-05
   136   -8.596960147032e-04
   137    1.546790354135e-04
   138    6.222306901664e-04
   139   -3.390356825945e-04
   140    1.192235180406e-02
   141    1.280236651865e-03
   142   -7.437427264354e-03
   143   -9.310965687053e-04
   144    3.047514769335e-04
   145   -2.601424233864e-05
   146    8.927737881914e-04
   147    6.619501841095e-04
   148   -4.133033555215e-04
   149    9.349802358624e-05
   150    6.525804139385e-04
   151    1.732865358288e-04
   152   -1.901387340667e-04
   153   -2.448221325161e-04
   154   -6.076695556050e-03
   155    8.767695137942e-04
   156    4.672112914409e-03
   157   -2.196605167276e-03
   158   -1.012942821792e-04
   159    9.175361909973e-05
   160    4.181373748816e-05
   161   -4.856524246456e-05
   162   -3.955976578558e-05
   163    2.142961527100e-05
   164   -1.017294530755e-04
   165    1.958749543991e-04
   166   -1.213885738604e-04
   167   -6.539436335880e-05
   168   -2.009256865583e-03
   169    7.798551934856e-04
   170    4.054315926201e-04
   171    8.960899405081e-04
   172    3.643554998879e-05
   173    7.057898199945e-05
   174   -7.905414796762e-05
   175   -5.321920507210e-05
   176    9.345735597412e-05
   177   -1.828646104925e-05
   178   -1.220967786467e-04
   179    6.777829489562e-06
   180   -2.119115168854e-05
   181   -7.627988018441e-05
   182    1.902116622476e-03
   183   -5.593489313486e-04
   184    8.808231844378e-04
   185    1.334289100275e-03
   186    1.970747997708e-05
   187    3.960440329769e-05
   188    2.912662307745e-05
   189    2.159677488995e-05
   190    7.798379944120e-06
   191    1.121868793339e-04
   192    3.306839398851e-04
   193   -4.762447591489e-05
   194   -3.151901390737e-04
   195   -4.020770720906e-05
   196    1.595144767767e-04
   197   -1.329526700657e-04
   198    1.818739783940e-03
   199   -2.994856031537e-04
   200   -1.388783547540e-03
   201   -7.590579873116e-05
   202   -8.460809949606e-04
   203    1.199476961566e-04
   204    2.719709162528e-04
   205   -1.803111701365e-06
   206   -9.496736975493e-04