[Molden Format]
[Title]
Written by TeraChem
[Atoms] Angs
C   1   6      1.75000    0.00000    0.59225
C   2   6     -1.75000    0.00000    0.59225
O   3   8      1.75000    0.00000   -0.59537
O   4   8     -1.75000    0.00000   -0.59537
H   5   1      1.75000    0.92490    1.17073
H   6   1     -1.75000    0.92490    1.17073
H   7   1      1.75000   -0.92490    1.17073
H   8   1     -1.75000   -0.92490    1.17073
[GTO]
    1 0
 s    6 1.00
         3047.524900             0.001835
          457.369510             0.014037
          103.948690             0.068843
           29.210155             0.232184
            9.286663             0.467941
            3.163927             0.362312
 s    3 1.00
            7.868272            -0.119332
            1.881288            -0.160854
            0.544249             1.143456
 s    1 1.00
            0.168714             1.000000
 p    3 1.00
            7.868272             0.068999
            1.881288             0.316424
            0.544249             0.744308
 p    1 1.00
            0.168714             1.000000
 d    1 1.00
            0.800000             1.000000

    2 0
 s    6 1.00
         3047.524900             0.001835
          457.369510             0.014037
          103.948690             0.068843
           29.210155             0.232184
            9.286663             0.467941
            3.163927             0.362312
 s    3 1.00
            7.868272            -0.119332
            1.881288            -0.160854
            0.544249             1.143456
 s    1 1.00
            0.168714             1.000000
 p    3 1.00
            7.868272             0.068999
            1.881288             0.316424
            0.544249             0.744308
 p    1 1.00
            0.168714             1.000000
 d    1 1.00
            0.800000             1.000000

    3 0
 s    6 1.00
         5484.671700             0.001831
          825.234950             0.013950
          188.046960             0.068445
           52.964500             0.232714
           16.897570             0.470193
            5.799635             0.358521
 s    3 1.00
           15.539616            -0.110778
            3.599934            -0.148026
            1.013762             1.130767
 s    1 1.00
            0.270006             1.000000
 p    3 1.00
           15.539616             0.070874
            3.599934             0.339753
            1.013762             0.727159
 p    1 1.00
            0.270006             1.000000
 d    1 1.00
            0.800000             1.000000

    4 0
 s    6 1.00
         5484.671700             0.001831
          825.234950             0.013950
          188.046960             0.068445
           52.964500             0.232714
           16.897570             0.470193
            5.799635             0.358521
 s    3 1.00
           15.539616            -0.110778
            3.599934            -0.148026
            1.013762             1.130767
 s    1 1.00
            0.270006             1.000000
 p    3 1.00
           15.539616             0.070874
            3.599934             0.339753
            1.013762             0.727159
 p    1 1.00
            0.270006             1.000000
 d    1 1.00
            0.800000             1.000000

    5 0
 s    3 1.00
           18.731137             0.033495
            2.825394             0.234727
            0.640122             0.813757
 s    1 1.00
            0.161278             1.000000

    6 0
 s    3 1.00
           18.731137             0.033495
            2.825394             0.234727
            0.640122             0.813757
 s    1 1.00
            0.161278             1.000000

    7 0
 s    3 1.00
           18.731137             0.033495
            2.825394             0.234727
            0.640122             0.813757
 s    1 1.00
            0.161278             1.000000

    8 0
 s    3 1.00
           18.731137             0.033495
            2.825394             0.234727
            0.640122             0.813757
 s    1 1.00
            0.161278             1.000000

[MO]
 Ene=   -18.7896
 Spin= Alpha
 Occup= 2.0
    1   -0.00005
    2   -0.00053
    3    0.00294
    4    0.00001
    5    0.00000
    6   -0.00018
    7   -0.00002
    8   -0.00000
    9   -0.00215
   10   -0.00002
   11   -0.00001
   12    0.00098
   13    0.00000
   14    0.00000
   15   -0.00000
   16    0.00001
   17    0.00005
   18   -0.00027
   19    0.00001
   20   -0.00000
   21    0.00001
   22   -0.00005
   23    0.00000
   24    0.00012
   25    0.00001
   26    0.00001
   27   -0.00004
   28   -0.00000
   29    0.00001
   30    0.00000
   31   -0.99100
   32   -0.02695
   33   -0.01320
   34   -0.00000
   35   -0.00000
   36   -0.00127
   37    0.00001
   38    0.00000
   39   -0.00134
   40    0.00849
   41    0.00854
   42    0.00794
   43   -0.00000
   44    0.00000
   45    0.00000
   46    0.05479
   47    0.00148
   48    0.00082
   49   -0.00001
   50    0.00000
   51    0.00007
   52    0.00004
   53   -0.00000
   54    0.00008
   55   -0.00049
   56   -0.00049
   57   -0.00046
   58    0.00000
   59    0.00001
   60   -0.00000
   61   -0.00006
   62    0.00018
   63    0.00001
   64    0.00000
   65   -0.00006
   66    0.00018
   67    0.00001
   68    0.00000
 Ene=   -18.7896
 Spin= Alpha
 Occup= 2.0
    1   -0.00000
    2    0.00001
    3   -0.00006
    4    0.00000
    5    0.00000
    6    0.00001
    7   -0.00005
    8    0.00000
    9    0.00012
   10   -0.00001
   11   -0.00001
   12   -0.00007
   13   -0.00000
   14    0.00001
   15    0.00000
   16    0.00005
   17    0.00053
   18   -0.00292
   19    0.00001
   20   -0.00000
   21    0.00018
   22   -0.00001
   23    0.00000
   24    0.00215
   25    0.00001
   26    0.00001
   27   -0.00098
   28   -0.00000
   29    0.00000
   30    0.00000
   31    0.05480
   32    0.00150
   33    0.00064
   34   -0.00001
   35    0.00000
   36    0.00007
   37    0.00004
   38   -0.00000
   39    0.00007
   40   -0.00045
   41   -0.00045
   42   -0.00041
   43    0.00000
   44    0.00001
   45   -0.00000
   46    0.99100
   47    0.02695
   48    0.01319
   49   -0.00000
   50    0.00000
   51    0.00127
   52    0.00001
   53   -0.00000
   54    0.00134
   55   -0.00849
   56   -0.00854
   57   -0.00793
   58    0.00000
   59    0.00000
   60   -0.00000
   61   -0.00001
   62   -0.00002
   63    0.00006
   64   -0.00018
   65   -0.00001
   66   -0.00002
   67    0.00006
   68   -0.00018
 Ene=    -9.9876
 Spin= Alpha
 Occup= 2.0
    1    0.34307
    2    0.01840
    3   -0.00412
    4   -0.00015
    5   -0.00000
    6   -0.00035
    7    0.00040
    8    0.00000
    9   -0.00042
   10   -0.00367
   11   -0.00364
   12   -0.00327
   13    0.00000
   14   -0.00004
   15    0.00000
   16   -0.93105
   17   -0.04977
   18    0.00855
   19   -0.00010
   20    0.00000
   21    0.00111
   22    0.00026
   23   -0.00000
   24    0.00167
   25    0.01027
   26    0.01010
   27    0.00899
   28   -0.00000
   29   -0.00003
   30   -0.00000
   31   -0.00010
   32   -0.00013
   33    0.00034
   34    0.00000
   35    0.00000
   36   -0.00009
   37   -0.00011
   38   -0.00000
   39   -0.00035
   40   -0.00002
   41   -0.00006
   42   -0.00025
   43   -0.00000
   44   -0.00003
   45    0.00000
   46    0.00021
   47    0.00001
   48    0.00117
   49    0.00000
   50   -0.00000
   51    0.00020
   52   -0.00007
   53    0.00000
   54    0.00167
   55   -0.00017
   56   -0.00007
   57    0.00055
   58    0.00000
   59   -0.00002
   60   -0.00000
   61   -0.00012
   62    0.00099
   63    0.00044
   64   -0.00233
   65   -0.00012
   66    0.00099
   67    0.00044
   68   -0.00233
 Ene=    -9.9876
 Spin= Alpha
 Occup= 2.0
    1    0.93103
    2    0.04971
    3   -0.00773
    4   -0.00000
    5   -0.00000
    6   -0.00116
    7    0.00000
    8    0.00000
    9   -0.00184
   10   -0.01036
   11   -0.01016
   12   -0.00903
   13    0.00000
   14   -0.00000
   15    0.00000
   16    0.34300
   17    0.01825
   18   -0.00188
   19   -0.00011
   20   -0.00000
   21   -0.00049
   22    0.00030
   23    0.00000
   24   -0.00088
   25   -0.00393
   26   -0.00382
   27   -0.00337
   28    0.00000
   29   -0.00003
   30    0.00000
   31   -0.00019
   32    0.00010
   33   -0.00183
   34    0.00000
   35    0.00000
   36   -0.00018
   37   -0.00000
   38   -0.00000
   39   -0.00189
   40    0.00024
   41    0.00014
   42   -0.00050
   43   -0.00000
   44   -0.00000
   45    0.00000
   46   -0.00004
   47    0.00017
   48   -0.00145
   49    0.00000
   50    0.00000
   51   -0.00005
   52   -0.00008
   53   -0.00000
   54   -0.00096
   55    0.00018
   56    0.00013
   57   -0.00013
   58   -0.00000
   59   -0.00003
   60    0.00000
   61   -0.00048
   62    0.00221
   63   -0.00022
   64    0.00068
   65   -0.00048
   66    0.00221
   67   -0.00022
   68    0.00068
 Ene=    -0.9801
 Spin= Alpha
 Occup= 2.0
    1   -0.08535
    2    0.16285
    3    0.06819
    4   -0.00025
    5   -0.00000
    6   -0.13795
    7   -0.00048
    8   -0.00000
    9    0.00959
   10   -0.01327
   11   -0.01133
   12    0.01829
   13    0.00000
   14   -0.00003
   15    0.00000
   16   -0.08499
   17    0.16216
   18    0.06790
   19    0.00025
   20   -0.00000
   21   -0.13737
   22    0.00048
   23   -0.00000
   24    0.00954
   25   -0.01321
   26   -0.01128
   27    0.01821
   28    0.00000
   29    0.00003
   30    0.00000
   31   -0.13794
   32    0.30441
   33    0.25284
   34    0.00001
   35    0.00000
   36    0.12410
   37   -0.00040
   38    0.00000
   39    0.03275
   40   -0.00117
   41   -0.00635
   42    0.00808
   43    0.00000
   44   -0.00005
   45    0.00000
   46   -0.13735
   47    0.30311
   48    0.25175
   49   -0.00001
   50    0.00000
   51    0.12357
   52    0.00040
   53    0.00000
   54    0.03261
   55   -0.00116
   56   -0.00633
   57    0.00804
   58    0.00000
   59    0.00005
   60    0.00000
   61    0.02003
   62   -0.00637
   63    0.01995
   64   -0.00634
   65    0.02003
   66   -0.00637
   67    0.01995
   68   -0.00634
 Ene=    -0.9791
 Spin= Alpha
 Occup= 2.0
    1   -0.08494
    2    0.16263
    3    0.06633
    4    0.00009
    5   -0.00000
    6   -0.13791
    7    0.00010
    8   -0.00000
    9    0.01119
   10   -0.01325
   11   -0.01110
   12    0.01818
   13    0.00000
   14    0.00005
   15    0.00000
   16    0.08530
   17   -0.16333
   18   -0.06662
   19    0.00009
   20    0.00000
   21    0.13850
   22    0.00010
   23    0.00000
   24   -0.01123
   25    0.01331
   26    0.01115
   27   -0.01825
   28   -0.00000
   29    0.00005
   30   -0.00000
   31   -0.13753
   32    0.30400
   33    0.25259
   34    0.00026
   35    0.00000
   36    0.12392
   37    0.00103
   38    0.00000
   39    0.03328
   40   -0.00108
   41   -0.00595
   42    0.00843
   43    0.00000
   44    0.00005
   45    0.00000
   46    0.13812
   47   -0.30529
   48   -0.25367
   49    0.00025
   50   -0.00000
   51   -0.12445
   52    0.00103
   53   -0.00000
   54   -0.03342
   55    0.00108
   56    0.00598
   57   -0.00847
   58   -0.00000
   59    0.00005
   60   -0.00000
   61    0.01994
   62   -0.00675
   63   -0.02003
   64    0.00677
   65    0.01994
   66   -0.00675
   67   -0.02003
   68    0.00677
 Ene=    -0.5770
 Spin= Alpha
 Occup= 2.0
    1   -0.11428
    2    0.23342
    3    0.22934
    4   -0.00329
    5   -0.00000
    6    0.16703
    7   -0.00372
    8   -0.00000
    9    0.06599
   10   -0.00481
   11    0.01292
   12   -0.00900
   13    0.00000
   14   -0.00005
   15   -0.00000
   16   -0.11433
   17    0.23352
   18    0.22945
   19    0.00330
   20   -0.00000
   21    0.16711
   22    0.00372
   23   -0.00000
   24    0.06602
   25   -0.00482
   26    0.01293
   27   -0.00900
   28    0.00000
   29    0.00005
   30    0.00000
   31    0.06113
   32   -0.14114
   33   -0.16733
   34   -0.00197
   35   -0.00000
   36    0.05755
   37   -0.00002
   38   -0.00000
   39    0.03432
   40   -0.00191
   41    0.00075
   42    0.00837
   43   -0.00000
   44   -0.00007
   45   -0.00000
   46    0.06116
   47   -0.14120
   48   -0.16741
   49    0.00197
   50   -0.00000
   51    0.05757
   52    0.00001
   53   -0.00000
   54    0.03434
   55   -0.00191
   56    0.00075
   57    0.00837
   58   -0.00000
   59    0.00007
   60   -0.00000
   61    0.12746
   62    0.04785
   63    0.12751
   64    0.04787
   65    0.12746
   66    0.04785
   67    0.12751
   68    0.04787
 Ene=    -0.5735
 Spin= Alpha
 Occup= 2.0
    1    0.11550
    2   -0.23720
    3   -0.23537
    4   -0.00189
    5    0.00000
    6   -0.16720
    7   -0.00090
    8    0.00000
    9   -0.06419
   10    0.00590
   11   -0.01303
   12    0.00846
   13   -0.00000
   14    0.00008
   15    0.00000
   16   -0.11545
   17    0.23710
   18    0.23527
   19   -0.00189
   20   -0.00000
   21    0.16713
   22   -0.00090
   23   -0.00000
   24    0.06416
   25   -0.00590
   26    0.01303
   27   -0.00846
   28    0.00000
   29    0.00008
   30    0.00000
   31   -0.06121
   32    0.14064
   33    0.17180
   34   -0.00074
   35    0.00000
   36   -0.05980
   37    0.00013
   38    0.00000
   39   -0.03336
   40    0.00182
   41   -0.00099
   42   -0.00838
   43    0.00000
   44   -0.00014
   45    0.00000
   46    0.06118
   47   -0.14058
   48   -0.17172
   49   -0.00074
   50   -0.00000
   51    0.05977
   52    0.00013
   53   -0.00000
   54    0.03334
   55   -0.00182
   56    0.00099
   57    0.00838
   58   -0.00000
   59   -0.00014
   60   -0.00000
   61   -0.12922
   62   -0.04566
   63    0.12917
   64    0.04564
   65   -0.12922
   66   -0.04566
   67    0.12917
   68    0.04564
 Ene=    -0.4467
 Spin= Alpha
 Occup= 2.0
    1   -0.00000
    2    0.00000
    3    0.00000
    4    0.00000
    5    0.31877
    6    0.00000
    7    0.00000
    8    0.11609
    9    0.00000
   10    0.00000
   11   -0.00000
   12    0.00000
   13   -0.00033
   14   -0.00000
   15    0.00350
   16   -0.00000
   17    0.00000
   18    0.00000
   19    0.00000
   20    0.31885
   21    0.00000
   22    0.00000
   23    0.11612
   24    0.00000
   25    0.00000
   26   -0.00000
   27    0.00000
   28    0.00034
   29   -0.00000
   30    0.00350
   31    0.00000
   32   -0.00000
   33   -0.00000
   34    0.00000
   35    0.19164
   36    0.00000
   37    0.00000
   38    0.09793
   39    0.00000
   40   -0.00000
   41    0.00000
   42   -0.00000
   43   -0.00005
   44    0.00000
   45    0.01637
   46    0.00000
   47   -0.00000
   48    0.00000
   49    0.00000
   50    0.19168
   51   -0.00000
   52    0.00000
   53    0.09795
   54    0.00000
   55   -0.00000
   56    0.00000
   57   -0.00000
   58    0.00005
   59    0.00000
   60    0.01637
   61    0.13855
   62    0.09500
   63    0.13859
   64    0.09503
   65   -0.13855
   66   -0.09500
   67   -0.13859
   68   -0.09503
 Ene=    -0.4443
 Spin= Alpha
 Occup= 2.0
    1   -0.00000
    2    0.00000
    3    0.00000
    4    0.00000
    5    0.32161
    6    0.00000
    7    0.00000
    8    0.11567
    9    0.00000
   10    0.00000
   11   -0.00000
   12    0.00000
   13    0.00011
   14   -0.00000
   15    0.00338
   16    0.00000
   17   -0.00000
   18   -0.00000
   19   -0.00000
   20   -0.32154
   21   -0.00000
   22   -0.00000
   23   -0.11564
   24   -0.00000
   25   -0.00000
   26    0.00000
   27   -0.00000
   28    0.00011
   29    0.00000
   30   -0.00338
   31    0.00000
   32   -0.00000
   33   -0.00000
   34    0.00000
   35    0.19380
   36    0.00000
   37    0.00000
   38    0.09880
   39    0.00000
   40   -0.00000
   41    0.00000
   42    0.00000
   43    0.00017
   44    0.00000
   45    0.01654
   46   -0.00000
   47    0.00000
   48   -0.00000
   49   -0.00000
   50   -0.19374
   51    0.00000
   52   -0.00000
   53   -0.09877
   54   -0.00000
   55    0.00000
   56   -0.00000
   57    0.00000
   58    0.00016
   59   -0.00000
   60   -0.01654
   61    0.13987
   62    0.09279
   63   -0.13983
   64   -0.09277
   65   -0.13987
   66   -0.09279
   67    0.13983
   68    0.09277
 Ene=    -0.3918
 Spin= Alpha
 Occup= 2.0
    1    0.02438
    2   -0.07020
    3   -0.02456
    4   -0.01601
    5    0.00000
    6    0.24822
    7   -0.01235
    8    0.00000
    9    0.05272
   10    0.00449
   11    0.01117
   12   -0.00091
   13   -0.00000
   14    0.00083
   15   -0.00000
   16    0.02429
   17   -0.06996
   18   -0.02444
   19    0.01606
   20   -0.00000
   21    0.24729
   22    0.01238
   23   -0.00000
   24    0.05249
   25    0.00447
   26    0.01113
   27   -0.00090
   28   -0.00000
   29   -0.00083
   30   -0.00000
   31   -0.06459
   32    0.12828
   33    0.30042
   34   -0.02117
   35    0.00000
   36   -0.37202
   37   -0.01385
   38    0.00000
   39   -0.18309
   40   -0.00011
   41   -0.00303
   42   -0.02744
   43    0.00000
   44   -0.00153
   45    0.00000
   46   -0.06435
   47    0.12780
   48    0.29928
   49    0.02124
   50    0.00000
   51   -0.37063
   52    0.01390
   53    0.00000
   54   -0.18243
   55   -0.00011
   56   -0.00302
   57   -0.02735
   58    0.00000
   59    0.00153
   60   -0.00000
   61    0.05176
   62    0.05716
   63    0.05156
   64    0.05696
   65    0.05176
   66    0.05716
   67    0.05156
   68    0.05696
 Ene=    -0.3905
 Spin= Alpha
 Occup= 2.0
    1    0.02346
    2   -0.06606
    3   -0.03347
    4    0.01164
    5   -0.00000
    6    0.24991
    7    0.00900
    8    0.00000
    9    0.06214
   10    0.00492
   11    0.01199
   12   -0.00135
   13   -0.00000
   14   -0.00074
   15   -0.00000
   16   -0.02356
   17    0.06633
   18    0.03357
   19    0.01157
   20    0.00000
   21   -0.25082
   22    0.00894
   23    0.00000
   24   -0.06234
   25   -0.00494
   26   -0.01203
   27    0.00135
   28    0.00000
   29   -0.00074
   30    0.00000
   31   -0.06466
   32    0.12845
   33    0.30852
   34    0.01729
   35    0.00000
   36   -0.37120
   37    0.01227
   38    0.00000
   39   -0.17681
   40   -0.00005
   41   -0.00253
   42   -0.02617
   43    0.00000
   44    0.00097
   45   -0.00000
   46    0.06490
   47   -0.12893
   48   -0.30964
   49    0.01718
   50   -0.00000
   51    0.37258
   52    0.01220
   53   -0.00000
   54    0.17749
   55    0.00005
   56    0.00254
   57    0.02628
   58   -0.00000
   59    0.00096
   60    0.00000
   61    0.05345
   62    0.05549
   63   -0.05364
   64   -0.05570
   65    0.05345
   66    0.05549
   67   -0.05364
   68   -0.05570
 Ene=    -0.3712
 Spin= Alpha
 Occup= 2.0
    1    0.00040
    2   -0.00472
    3    0.01388
    4   -0.25888
    5    0.00000
    6   -0.01999
    7   -0.15192
    8    0.00000
    9   -0.01390
   10    0.00021
   11   -0.00211
   12   -0.00026
   13    0.00000
   14    0.01805
   15    0.00000
   16    0.00040
   17   -0.00471
   18    0.01389
   19    0.25882
   20   -0.00000
   21   -0.02002
   22    0.15189
   23   -0.00000
   24   -0.01391
   25    0.00021
   26   -0.00211
   27   -0.00026
   28   -0.00000
   29   -0.01804
   30   -0.00000
   31    0.00478
   32   -0.01009
   33   -0.02955
   34   -0.35127
   35   -0.00000
   36    0.02318
   37   -0.20901
   38   -0.00000
   39    0.00666
   40    0.00040
   41   -0.00049
   42    0.00071
   43   -0.00000
   44   -0.02253
   45    0.00000
   46    0.00479
   47   -0.01010
   48   -0.02958
   49    0.35118
   50    0.00000
   51    0.02321
   52    0.20896
   53    0.00000
   54    0.00668
   55    0.00040
   56   -0.00049
   57    0.00071
   58    0.00000
   59    0.02253
   60   -0.00000
   61   -0.00772
   62   -0.00412
   63   -0.00773
   64   -0.00413
   65   -0.00773
   66   -0.00413
   67   -0.00773
   68   -0.00413
 Ene=    -0.3573
 Spin= Alpha
 Occup= 2.0
    1   -0.00013
    2    0.00409
    3   -0.01695
    4   -0.26617
    5    0.00000
    6    0.01522
    7   -0.13863
    8    0.00000
    9    0.01672
   10    0.00030
   11    0.00192
   12   -0.00004
   13    0.00000
   14    0.01950
   15    0.00000
   16    0.00013
   17   -0.00409
   18    0.01694
   19   -0.26623
   20    0.00000
   21   -0.01521
   22   -0.13867
   23    0.00000
   24   -0.01672
   25   -0.00030
   26   -0.00192
   27    0.00004
   28    0.00000
   29    0.01951
   30    0.00000
   31   -0.00430
   32    0.00904
   33    0.02989
   34   -0.36974
   35   -0.00000
   36   -0.01805
   37   -0.21466
   38   -0.00000
   39   -0.00199
   40   -0.00077
   41    0.00050
   42   -0.00003
   43   -0.00000
   44   -0.02344
   45    0.00000
   46    0.00430
   47   -0.00903
   48   -0.02987
   49   -0.36982
   50   -0.00000
   51    0.01804
   52   -0.21471
   53   -0.00000
   54    0.00199
   55    0.00076
   56   -0.00050
   57    0.00003
   58   -0.00000
   59   -0.02345
   60    0.00000
   61    0.00588
   62    0.00214
   63   -0.00587
   64   -0.00213
   65    0.00588
   66    0.00213
   67   -0.00588
   68   -0.00213
 Ene=    -0.2159
 Spin= Alpha
 Occup= 2.0
    1   -0.00000
    2    0.00000
    3    0.00000
    4    0.00000
    5    0.09280
    6    0.00000
    7    0.00000
    8   -0.04448
    9    0.00000
   10    0.00000
   11   -0.00000
   12    0.00000
   13   -0.00026
   14   -0.00000
   15    0.03748
   16   -0.00000
   17    0.00000
   18    0.00000
   19    0.00000
   20    0.09258
   21    0.00000
   22    0.00000
   23   -0.04442
   24    0.00000
   25   -0.00000
   26    0.00000
   27    0.00000
   28    0.00026
   29   -0.00000
   30    0.03740
   31   -0.00000
   32    0.00000
   33    0.00000
   34    0.00000
   35   -0.41617
   36   -0.00000
   37    0.00000
   38   -0.29306
   39   -0.00000
   40    0.00000
   41   -0.00000
   42   -0.00000
   43   -0.00007
   44    0.00000
   45   -0.01308
   46   -0.00000
   47    0.00000
   48    0.00000
   49    0.00000
   50   -0.41526
   51   -0.00000
   52    0.00000
   53   -0.29243
   54   -0.00000
   55    0.00000
   56   -0.00000
   57    0.00000
   58    0.00007
   59    0.00000
   60   -0.01305
   61    0.12886
   62    0.22094
   63    0.12858
   64    0.22049
   65   -0.12886
   66   -0.22094
   67   -0.12858
   68   -0.22049
 Ene=    -0.2139
 Spin= Alpha
 Occup= 2.0
    1   -0.00000
    2    0.00000
    3    0.00000
    4    0.00000
    5    0.09671
    6    0.00000
    7    0.00000
    8   -0.03289
    9    0.00000
   10    0.00000
   11    0.00000
   12    0.00000
   13    0.00014
   14    0.00000
   15    0.03781
   16    0.00000
   17    0.00000
   18   -0.00000
   19   -0.00000
   20   -0.09690
   21   -0.00000
   22   -0.00000
   23    0.03299
   24   -0.00000
   25   -0.00000
   26    0.00000
   27   -0.00000
   28    0.00014
   29   -0.00000
   30   -0.03789
   31   -0.00000
   32    0.00000
   33    0.00000
   34   -0.00000
   35   -0.41659
   36   -0.00000
   37   -0.00000
   38   -0.29443
   39   -0.00000
   40   -0.00000
   41   -0.00000
   42    0.00000
   43   -0.00017
   44    0.00000
   45   -0.01308
   46    0.00000
   47   -0.00000
   48   -0.00000
   49    0.00000
   50    0.41750
   51    0.00000
   52    0.00000
   53    0.29507
   54    0.00000
   55   -0.00000
   56    0.00000
   57   -0.00000
   58   -0.00017
   59   -0.00000
   60    0.01311
   61    0.13091
   62    0.20983
   63   -0.13119
   64   -0.21032
   65   -0.13091
   66   -0.20984
   67    0.13119
   68    0.21032
 Ene=    -0.0864
 Spin= Alpha
 Occup= 0.0
    1   -0.00339
    2    0.01762
    3    0.00804
    4    0.33916
    5   -0.00000
    6    0.01062
    7    0.39233
    8    0.00000
    9   -0.00194
   10   -0.00297
   11    0.00205
   12    0.00266
   13   -0.00000
   14    0.02341
   15   -0.00000
   16   -0.00339
   17    0.01762
   18    0.00803
   19   -0.33913
   20   -0.00000
   21    0.01063
   22   -0.39231
   23   -0.00000
   24   -0.00194
   25   -0.00298
   26    0.00206
   27    0.00266
   28    0.00000
   29   -0.02341
   30    0.00000
   31   -0.00048
   32    0.00108
   33   -0.00023
   34   -0.32801
   35    0.00000
   36    0.00046
   37   -0.32751
   38    0.00000
   39   -0.00224
   40   -0.00109
   41   -0.00010
   42   -0.00093
   43   -0.00000
   44   -0.00179
   45    0.00000
   46   -0.00048
   47    0.00108
   48   -0.00022
   49    0.32799
   50   -0.00000
   51    0.00046
   52    0.32749
   53   -0.00000
   54   -0.00224
   55   -0.00109
   56   -0.00010
   57   -0.00093
   58    0.00000
   59    0.00179
   60   -0.00000
   61    0.00961
   62   -0.01241
   63    0.00961
   64   -0.01241
   65    0.00961
   66   -0.01241
   67    0.00961
   68   -0.01241
 Ene=    -0.0645
 Spin= Alpha
 Occup= 0.0
    1    0.00339
    2   -0.01662
    3   -0.01368
    4    0.38761
    5    0.00000
    6   -0.00952
    7    0.39686
    8    0.00000
    9   -0.00183
   10    0.00266
   11   -0.00176
   12   -0.00249
   13   -0.00000
   14    0.02410
   15   -0.00000
   16   -0.00339
   17    0.01662
   18    0.01369
   19    0.38763
   20    0.00000
   21    0.00952
   22    0.39688
   23    0.00000
   24    0.00183
   25   -0.00266
   26    0.00176
   27    0.00249
   28   -0.00000
   29    0.02410
   30   -0.00000
   31    0.00037
   32   -0.00063
   33   -0.00071
   34   -0.32182
   35    0.00000
   36   -0.00152
   37   -0.31545
   38    0.00000
   39    0.00230
   40    0.00095
   41    0.00025
   42    0.00100
   43   -0.00000
   44    0.00147
   45    0.00000
   46   -0.00037
   47    0.00063
   48    0.00070
   49   -0.32184
   50    0.00000
   51    0.00152
   52   -0.31548
   53    0.00000
   54   -0.00230
   55   -0.00095
   56   -0.00025
   57   -0.00100
   58   -0.00000
   59    0.00147
   60    0.00000
   61   -0.00829
   62    0.01667
   63    0.00829
   64   -0.01668
   65   -0.00829
   66    0.01667
   67    0.00829
   68   -0.01667
 Ene=     0.0737
 Spin= Alpha
 Occup= 0.0
    1   -0.09139
    2    0.16143
    3    1.30878
    4   -0.02408
    5   -0.00000
    6    0.18060
    7    0.00714
    8   -0.00000
    9    0.44248
   10    0.00275
   11   -0.00938
   12   -0.00450
   13    0.00000
   14   -0.00087
   15   -0.00000
   16   -0.09140
   17    0.16144
   18    1.30884
   19    0.02407
   20   -0.00000
   21    0.18061
   22   -0.00715
   23   -0.00000
   24    0.44249
   25    0.00275
   26   -0.00938
   27   -0.00450
   28    0.00000
   29    0.00087
   30   -0.00000
   31    0.00286
   32   -0.01066
   33    0.01326
   34    0.00775
   35    0.00000
   36   -0.05681
   37    0.00226
   38    0.00000
   39   -0.05387
   40    0.00331
   41   -0.00605
   42    0.00129
   43   -0.00000
   44   -0.00140
   45   -0.00000
   46    0.00286
   47   -0.01066
   48    0.01326
   49   -0.00774
   50    0.00000
   51   -0.05682
   52   -0.00226
   53    0.00000
   54   -0.05387
   55    0.00331
   56   -0.00605
   57    0.00129
   58   -0.00000
   59    0.00140
   60   -0.00000
   61   -0.06327
   62   -0.96147
   63   -0.06327
   64   -0.96152
   65   -0.06327
   66   -0.96148
   67   -0.06327
   68   -0.96152
 Ene=     0.0937
 Spin= Alpha
 Occup= 0.0
    1   -0.09368
    2    0.16462
    3    1.35500
    4    0.02469
    5   -0.00000
    6    0.18051
    7   -0.00976
    8   -0.00000
    9    0.44237
   10    0.00355
   11   -0.01196
   12   -0.00462
   13    0.00000
   14    0.00081
   15   -0.00000
   16    0.09367
   17   -0.16462
   18   -1.35493
   19    0.02469
   20    0.00000
   21   -0.18050
   22   -0.00975
   23    0.00000
   24   -0.44235
   25   -0.00355
   26    0.01196
   27    0.00462
   28   -0.00000
   29    0.00081
   30    0.00000
   31    0.00413
   32   -0.00969
   33   -0.00904
   34   -0.00849
   35    0.00000
   36   -0.05695
   37   -0.00112
   38    0.00000
   39   -0.06380
   40    0.00533
   41   -0.00482
   42    0.00235
   43   -0.00000
   44    0.00150
   45   -0.00000
   46   -0.00413
   47    0.00968
   48    0.00903
   49   -0.00849
   50   -0.00000
   51    0.05695
   52   -0.00112
   53   -0.00000
   54    0.06380
   55   -0.00533
   56    0.00482
   57   -0.00235
   58    0.00000
   59    0.00150
   60    0.00000
   61   -0.08126
   62   -0.97620
   63    0.08126
   64    0.97615
   65   -0.08126
   66   -0.97620
   67    0.08126
   68    0.97616
 Ene=     0.1529
 Spin= Alpha
 Occup= 0.0
    1    0.00000
    2   -0.00000
    3    0.00000
    4    0.00000
    5   -0.39102
    6   -0.00000
    7    0.00000
    8   -0.93690
    9   -0.00001
   10    0.00000
   11    0.00000
   12   -0.00000
   13   -0.00033
   14    0.00000
   15   -0.00272
   16    0.00000
   17   -0.00000
   18    0.00000
   19    0.00000
   20   -0.39104
   21   -0.00000
   22    0.00000
   23   -0.93692
   24   -0.00001
   25    0.00000
   26    0.00000
   27   -0.00000
   28    0.00033
   29    0.00000
   30   -0.00272
   31    0.00000
   32   -0.00000
   33   -0.00001
   34   -0.00000
   35    0.13450
   36   -0.00000
   37   -0.00000
   38    0.27136
   39   -0.00000
   40    0.00000
   41    0.00000
   42    0.00000
   43    0.00027
   44   -0.00000
   45   -0.00756
   46    0.00000
   47   -0.00000
   48   -0.00001
   49   -0.00000
   50    0.13450
   51   -0.00000
   52   -0.00000
   53    0.27137
   54   -0.00000
   55    0.00000
   56    0.00000
   57    0.00000
   58   -0.00027
   59   -0.00000
   60   -0.00756
   61    0.00499
   62    1.11224
   63    0.00499
   64    1.11227
   65   -0.00499
   66   -1.11224
   67   -0.00499
   68   -1.11227
 Ene=     0.1705
 Spin= Alpha
 Occup= 0.0
    1    0.03151
    2    0.02127
    3   -1.17679
    4   -0.05987
    5    0.00000
    6    0.08285
    7    0.02230
    8    0.00001
    9    1.33194
   10   -0.01071
   11   -0.01068
   12    0.01701
   13   -0.00000
   14    0.00062
   15   -0.00000
   16    0.03151
   17    0.02127
   18   -1.17677
   19    0.05987
   20   -0.00001
   21    0.08284
   22   -0.02230
   23   -0.00001
   24    1.33192
   25   -0.01071
   26   -0.01068
   27    0.01701
   28   -0.00000
   29   -0.00062
   30   -0.00000
   31   -0.07845
   32    0.07305
   33    1.51006
   34   -0.02273
   35   -0.00000
   36    0.12579
   37    0.01185
   38   -0.00000
   39    0.59623
   40   -0.05341