
                                 *****************
                                 * O   R   C   A *
                                 *****************

           --- An Ab Initio, DFT and Semiempirical electronic structure package ---

                  #######################################################
                  #                        -***-                        #
                  #  Department of molecular theory and spectroscopy    #
                  #              Directorship: Frank Neese              #
                  # Max Planck Institute for Chemical Energy Conversion #
                  #                  D-45470 Muelheim/Ruhr              #
                  #                       Germany                       #
                  #                                                     #
                  #                  All rights reserved                #
                  #                        -***-                        #
                  #######################################################


                         Program Version 4.0.1.2 - RELEASE -


 With contributions from (in alphabetic order):
   Daniel Aravena         : Magnetic Properties
   Michael Atanasov       : Ab Initio Ligand Field Theory
   Ute Becker             : Parallelization
   Martin Brehm           : Molecular dynamics
   Dmytro Bykov           : SCF Hessian
   Vijay G. Chilkuri      : MRCI spin determinant printing
   Dipayan Datta          : RHF DLPNO-CCSD density
   Achintya Kumar Dutta   : EOM-CC, STEOM-CC
   Dmitry Ganyushin       : Spin-Orbit,Spin-Spin,Magnetic field MRCI
   Yang Guo               : DLPNO-NEVPT2, CIM, IAO-localization
   Andreas Hansen         : Spin unrestricted coupled pair/coupled cluster methods
   Lee Huntington         : MR-EOM, pCC
   Robert Izsak           : Overlap fitted RIJCOSX, COSX-SCS-MP3, EOM
   Christian Kollmar      : KDIIS, OOCD, Brueckner-CCSD(T), CCSD density
   Simone Kossmann        : Meta GGA functionals, TD-DFT gradient, OOMP2, MP2 Hessian
   Martin Krupicka        : AUTO-CI
   Dagmar Lenk            : GEPOL surface
   Dimitrios Liakos       : Extrapolation schemes; parallel MDCI
   Dimitrios Manganas     : ROCIS; embedding schemes
   Dimitrios Pantazis     : SARC Basis sets
   Taras Petrenko         : DFT Hessian,TD-DFT gradient, ASA, ECA, R-Raman, ABS, FL, XAS/XES, NRVS
   Peter Pinski           : DLPNO-MP2
   Christoph Reimann      : Effective Core Potentials
   Marius Retegan         : Local ZFS, SOC
   Christoph Riplinger    : Optimizer, TS searches, QM/MM, DLPNO-CCSD(T), (RO)-DLPNO pert. Triples
   Tobias Risthaus        : Range-separated hybrids, TD-DFT gradient, RPA, STAB
   Michael Roemelt        : Restricted open shell CIS
   Masaaki Saitow         : Open-shell DLPNO
   Barbara Sandhoefer     : DKH picture change effects
   Kantharuban Sivalingam : CASSCF convergence, NEVPT2, FIC-MRCI
   Georgi Stoychev        : AutoAux
   Boris Wezisla          : Elementary symmetry handling
   Frank Wennmohs         : Technical directorship


 We gratefully acknowledge several colleagues who have allowed us to
 interface, adapt or use parts of their codes:
   Stefan Grimme, W. Hujo, H. Kruse,             : VdW corrections, initial TS optimization,
                  C. Bannwarth                     DFT functionals, gCP, sTDA/sTD-DF
   Ed Valeev                                     : LibInt (2-el integral package), F12 methods
   Garnet Chan, S. Sharma, J. Yang, R. Olivares  : DMRG
   Ulf Ekstrom                                   : XCFun DFT Library
   Mihaly Kallay                                 : mrcc  (arbitrary order and MRCC methods)
   Andreas Klamt, Michael Diedenhofen            : otool_cosmo (COSMO solvation model)
   Jiri Pittner, Ondrej Demel                    : Mk-CCSD
   Frank Weinhold                                : gennbo (NPA and NBO analysis)
   Christopher J. Cramer and Donald G. Truhlar   : smd solvation model


 Your calculation uses the libint2 library for the computation of 2-el integrals
 For citations please refer to: http://libint.valeyev.net

 This ORCA versions uses:
   CBLAS   interface :  Fast vector & matrix operations
   LAPACKE interface :  Fast linear algebra routines
   SCALAPACK package :  Parallel linear algebra routines


Your calculation utilizes the basis: 6-31G
   H-He, Li-Ne : W. J. Hehre, R. Ditchfield and J.A. Pople, J. Chem. Phys. 56, 2257 (1972).
                 Note: He and Ne are unpublished basis sets taken from the Gaussian program.
                 Note: Li and B from J. D. Dill and J. A. Pople, J. Chem. Phys. 62, 2921 (1975).
   Na - Ar     : M. M. Francl, W. J. Pietro, W. J. Hehre, J. S. Binkley, M. S. Gordon, 
                 D. J. DeFrees and J. A. Pople, J. Chem. Phys. 77, 3654 (1982).
   K - Zn      : V. A. Rassolov, J. A. Pople, M. A. Ratner, and T. L. Windus, J. Chem. Phys. 109, 1223 (1998).

================================================================================
                                        WARNINGS
                       Please study these warnings very carefully!
================================================================================

Warning: TCutStore was < 0. Adjusted to Thresh (uncritical)

WARNING: your system is open-shell and RHF/RKS was chosen
  ===> : WILL SWITCH to UHF/UKS

INFO   : Checking CIS options ...

WARNING: CIS/ROCIS methods need fully converged wavefunctions
  ===> : Setting SCFConvForced true
         You can overwrite this default with %scf ConvForced false 


INFO   : the flag for use of LIBINT has been found!

================================================================================
                                       INPUT FILE
================================================================================
NAME = orca.inp
|  1> ! RKS PBE0 6-31G
|  2> %tddft
|  3>  nroots 10
|  4> end
|  5> %output
|  6>  PrintLevel Normal
|  7>  Print[ P_MOs ] 1
|  8>  Print[ P_Overlap ] 1
|  9>  Print[ P_Basis ] 2
| 10> end
| 11> 
| 12> %maxcore 4000
| 13> 
| 14> *xyz 1 2
| 15> C          1.75000        0.00000        0.59225
| 16> C         -1.75000        0.00000        0.59225
| 17> O          1.75000        0.00000       -0.69537
| 18> O         -1.75000        0.00000       -0.49537
| 19> H          1.75000        0.92490        1.17073
| 20> H         -1.75000        0.92490        1.17073
| 21> H          1.75000       -0.92490        1.17073
| 22> H         -1.75000       -0.92490        1.17073
| 23> *
| 24> 
| 25>                          ****END OF INPUT****
================================================================================

                       ****************************
                       * Single Point Calculation *
                       ****************************

---------------------------------
CARTESIAN COORDINATES (ANGSTROEM)
---------------------------------
  C      1.750000    0.000000    0.592250
  C     -1.750000    0.000000    0.592250
  O      1.750000    0.000000   -0.695370
  O     -1.750000    0.000000   -0.495370
  H      1.750000    0.924900    1.170730
  H     -1.750000    0.924900    1.170730
  H      1.750000   -0.924900    1.170730
  H     -1.750000   -0.924900    1.170730

----------------------------
CARTESIAN COORDINATES (A.U.)
----------------------------
  NO LB      ZA    FRAG     MASS         X           Y           Z
   0 C     6.0000    0    12.011    3.307021    0.000000    1.119190
   1 C     6.0000    0    12.011   -3.307021    0.000000    1.119190
   2 O     8.0000    0    15.999    3.307021    0.000000   -1.314059
   3 O     8.0000    0    15.999   -3.307021    0.000000   -0.936114
   4 H     1.0000    0     1.008    3.307021    1.747808    2.212359
   5 H     1.0000    0     1.008   -3.307021    1.747808    2.212359
   6 H     1.0000    0     1.008    3.307021   -1.747808    2.212359
   7 H     1.0000    0     1.008   -3.307021   -1.747808    2.212359

--------------------------------
INTERNAL COORDINATES (ANGSTROEM)
--------------------------------
 C      0   0   0     0.000000000000     0.00000000     0.00000000
 C      1   0   0     3.500000000000     0.00000000     0.00000000
 O      1   2   0     1.287620000000    90.00000000     0.00000000
 O      2   1   3     1.087620000000    90.00000000     0.00000000
 H      1   2   3     1.090907475637    90.00000000   122.02397778
 H      2   1   3     1.090907475637    90.00000000   237.97602222
 H      1   2   3     1.090907475637    90.00000000   237.97602222
 H      2   1   3     1.090907475637    90.00000000   122.02397778

---------------------------
INTERNAL COORDINATES (A.U.)
---------------------------
 C      0   0   0     0.000000000000     0.00000000     0.00000000
 C      1   0   0     6.614041468724     0.00000000     0.00000000
 O      1   2   0     2.433249164560    90.00000000     0.00000000
 O      2   1   3     2.055303937775    90.00000000     0.00000000
 H      1   2   3     2.061516366401    90.00000000   122.02397778
 H      2   1   3     2.061516366401    90.00000000   237.97602222
 H      1   2   3     2.061516366401    90.00000000   237.97602222
 H      2   1   3     2.061516366401    90.00000000   122.02397778

---------------------
BASIS SET INFORMATION
---------------------
There are 3 groups of distinct atoms

 Group   1 Type C   : 10s4p contracted to 3s2p pattern {631/31}
 Group   2 Type O   : 10s4p contracted to 3s2p pattern {631/31}
 Group   3 Type H   : 4s contracted to 2s pattern {31}

Atom   0C    basis set group =>   1
Atom   1C    basis set group =>   1
Atom   2O    basis set group =>   2
Atom   3O    basis set group =>   2
Atom   4H    basis set group =>   3
Atom   5H    basis set group =>   3
Atom   6H    basis set group =>   3
Atom   7H    basis set group =>   3

-------------------------
BASIS SET IN INPUT FORMAT
-------------------------

 # Basis set for element : H 
 NewGTO H 
 S 3 
   1      18.7311370000      0.0334945995
   2       2.8253937000      0.2347269467
   3       0.6401217000      0.8137573184
 S 1 
   1       0.1612778000      1.0000000000
  end;

 # Basis set for element : C 
 NewGTO C 
 S 6 
   1    3047.5249000000      0.0018347002
   2     457.3695100000      0.0140373012
   3     103.9486900000      0.0688426061
   4      29.2101550000      0.2321844206
   5       9.2866630000      0.4679413416
   6       3.1639270000      0.3623120322
 S 3 
   1       7.8682724000     -0.1193324086
   2       1.8812885000     -0.1608542116
   3       0.5442493000      1.1434564826
 P 3 
   1       7.8682724000      0.0689990956
   2       1.8812885000      0.3164239798
   3       0.5442493000      0.7443082524
 S 1 
   1       0.1687144000      1.0000000000
 P 1 
   1       0.1687144000      1.0000000000
  end;

 # Basis set for element : O 
 NewGTO O 
 S 6 
   1    5484.6717000000      0.0018310998
   2     825.2349500000      0.0139500985
   3     188.0469600000      0.0684450927
   4      52.9645000000      0.2327142753
   5      16.8975700000      0.4701929501
   6       5.7996353000      0.3585208619
 S 3 
   1      15.5396160000     -0.1107775038
   2       3.5999336000     -0.1480263051
   3       1.0137618000      1.1307670390
 P 3 
   1      15.5396160000      0.0708742995
   2       3.5999336000      0.3397527978
   3       1.0137618000      0.7271585953
 S 1 
   1       0.2700058000      1.0000000000
 P 1 
   1       0.2700058000      1.0000000000
  end;

------------------------------------------------------------------------------
                           ORCA GTO INTEGRAL CALCULATION
------------------------------------------------------------------------------

                         BASIS SET STATISTICS AND STARTUP INFO

 # of primitive gaussian shells          ...   72
 # of primitive gaussian functions       ...  104
 # of contracted shells                  ...   28
 # of contracted basis functions         ...   44
 Highest angular momentum                ...    1
 Maximum contraction depth               ...    6
 Integral package used                   ... LIBINT
 Integral threshhold            Thresh   ...  1.000e-10
 Primitive cut-off              TCut     ...  1.000e-11


------------------------------ INTEGRAL EVALUATION ----------------------------


 * One electron integrals 
 Pre-screening matrix                    ... done
 Shell pair data                         ... done (   0.000 sec)

-------------------------------------------------------------------------------
                                 ORCA SCF
-------------------------------------------------------------------------------

------------
SCF SETTINGS
------------
Hamiltonian:
 Density Functional     Method          .... DFT(GTOs)
 Exchange Functional    Exchange        .... PBE
   PBE kappa parameter   XKappa         ....  0.804000
   PBE mue parameter    XMuePBE         ....  0.219520
 Correlation Functional Correlation     .... PBE
   PBE beta parameter  CBetaPBE         ....  0.066725
 LDA part of GGA corr.  LDAOpt          .... PW91-LDA
 Gradients option       PostSCFGGA      .... off
 Hybrid DFT is turned on
   Fraction HF Exchange ScalHFX         ....  0.250000
   Scaling of DF-GGA-X  ScalDFX         ....  0.750000
   Scaling of DF-GGA-C  ScalDFC         ....  1.000000
   Scaling of DF-LDA-C  ScalLDAC        ....  1.000000
   Perturbative correction              ....  0.000000
   NL short-range parameter             ....  6.900000


General Settings:
 Integral files         IntName         .... orca
 Hartree-Fock type      HFTyp           .... UHF
 Total Charge           Charge          ....    1
 Multiplicity           Mult            ....    2
 Number of Electrons    NEL             ....   31
 Basis Dimension        Dim             ....   44
 Nuclear Repulsion      ENuc            ....    100.8857977085 Eh

Convergence Acceleration:
 DIIS                   CNVDIIS         .... on
   Start iteration      DIISMaxIt       ....    12
   Startup error        DIISStart       ....  0.200000
   # of expansion vecs  DIISMaxEq       ....     5
   Bias factor          DIISBfac        ....   1.050
   Max. coefficient     DIISMaxC        ....  10.000
 Newton-Raphson         CNVNR           .... off
 SOSCF                  CNVSOSCF        .... off
 Level Shifting         CNVShift        .... on
   Level shift para.    LevelShift      ....    0.2500
   Turn off err/grad.   ShiftErr        ....    0.0010
 Zerner damping         CNVZerner       .... off
 Static damping         CNVDamp         .... on
   Fraction old density DampFac         ....    0.7000
   Max. Damping (<1)    DampMax         ....    0.9800
   Min. Damping (>=0)   DampMin         ....    0.0000
   Turn off err/grad.   DampErr         ....    0.1000
 Fernandez-Rico         CNVRico         .... off

SCF Procedure:
 Maximum # iterations   MaxIter         ....   125
 SCF integral mode      SCFMode         .... Direct
   Integral package                     .... LIBINT
 Reset frequeny         DirectResetFreq ....    20
 Integral Threshold     Thresh          ....  1.000e-10 Eh
 Primitive CutOff       TCut            ....  1.000e-11 Eh

Convergence Tolerance:
 Convergence Check Mode ConvCheckMode   .... Total+1el-Energy
 Convergence forced     ConvForced      .... 1
 Energy Change          TolE            ....  1.000e-06 Eh
 1-El. energy change                    ....  1.000e-03 Eh
 DIIS Error             TolErr          ....  1.000e-06


Diagonalization of the overlap matrix:
Smallest eigenvalue                        ... 1.686e-02
Time for diagonalization                   ...    0.001 sec
Threshold for overlap eigenvalues          ... 1.000e-08
Number of eigenvalues below threshold      ... 0
Time for construction of square roots      ...    0.000 sec
Total time needed                          ...    0.001 sec

--------------
OVERLAP MATRIX
--------------
                  0          1          2          3          4          5    
      0       1.000000   0.219059  -0.000000  -0.000000   0.000000   0.184261
      1       0.219059   1.000000  -0.000000   0.000000   0.000000   0.812273
      2      -0.000000  -0.000000   1.000000   0.000000   0.000000  -0.000000
      3      -0.000000   0.000000   0.000000   1.000000   0.000000   0.000000
      4       0.000000   0.000000   0.000000   0.000000   1.000000   0.000000
      5       0.184261   0.812273  -0.000000   0.000000   0.000000   1.000000
      6      -0.000000   0.000000   0.569754   0.000000   0.000000   0.000000
      7      -0.000000   0.000000   0.000000   0.569754   0.000000  -0.000000
      8       0.000000   0.000000   0.000000   0.000000   0.569754   0.000000
      9       0.000000   0.000000  -0.000000  -0.000000   0.000000   0.000151
     10       0.000000   0.000009  -0.000000  -0.000028   0.000000   0.003115
     11      -0.000000  -0.000000   0.000004   0.000000   0.000000  -0.000000
     12       0.000000   0.000028  -0.000000  -0.000086   0.000000   0.005041
     13       0.000000   0.000000   0.000000   0.000000   0.000004   0.000000
     14       0.000151   0.003115  -0.000000  -0.005041   0.000000   0.024966
     15      -0.000000   0.000000   0.001856   0.000000   0.000000   0.000000
     16       0.000787   0.012840  -0.000000  -0.019245   0.000000   0.067825
     17       0.000000   0.000000   0.000000   0.000000   0.001856   0.000000
     18       0.000001   0.014983  -0.032975   0.000000   0.000000   0.044953
     19       0.004726   0.137215  -0.226476   0.000000   0.000000   0.261923
     20       0.011930   0.171164  -0.245807   0.000000   0.000000   0.141201
     21      -0.000000   0.000000  -0.000000   0.069274   0.000000   0.000000
     22       0.000000   0.000000   0.000000   0.000000   0.069274   0.000000
     23       0.056134   0.331989  -0.314862   0.000000   0.000000   0.519000
     24       0.133981   0.545843  -0.302644   0.000000   0.000000   0.504702
     25      -0.000000   0.000000  -0.000000   0.249027   0.000000   0.000000
     26       0.000000   0.000000   0.000000   0.000000   0.249027   0.000000
     27       0.000000   0.000000   0.000000   0.000000   0.000000   0.000043
     28       0.000000   0.000000  -0.000000  -0.000000   0.000000   0.000621
     29       0.000000   0.000000  -0.000000  -0.000000   0.000000   0.000258
     30       0.000000   0.000000  -0.000000  -0.000001   0.000000   0.000830
     31       0.000000   0.000000   0.000000   0.000000   0.000000   0.000000
     32       0.000001   0.000181  -0.000120  -0.000387   0.000000   0.006592
     33       0.000003   0.000257  -0.000060  -0.000555   0.000000   0.005414
     34       0.000008   0.000828  -0.000555  -0.001674   0.000000   0.017424
     35       0.000000   0.000000   0.000000   0.000000   0.000113   0.000000
     36       0.032609   0.273116   0.195552  -0.000000   0.312657   0.376677
     37       0.092101   0.475730   0.140914   0.000000   0.225299   0.704119
     38       0.000000   0.000001   0.000000  -0.000002   0.000001   0.001018
     39       0.000102   0.002185   0.000563  -0.003408   0.000901   0.019103
     40       0.032609   0.273116   0.195552  -0.000000  -0.312657   0.376677
     41       0.092101   0.475730   0.140914   0.000000  -0.225299   0.704119
     42       0.000000   0.000001   0.000000  -0.000002  -0.000001   0.001018
     43       0.000102   0.002185   0.000563  -0.003408  -0.000901   0.019103
                  6          7          8          9         10         11    
      0      -0.000000  -0.000000   0.000000   0.000000   0.000000  -0.000000
      1       0.000000   0.000000   0.000000   0.000000   0.000009  -0.000000
      2       0.569754   0.000000   0.000000  -0.000000  -0.000000   0.000004
      3       0.000000   0.569754   0.000000  -0.000000  -0.000028   0.000000
      4       0.000000   0.000000   0.569754   0.000000   0.000000   0.000000
      5       0.000000  -0.000000   0.000000   0.000151   0.003115  -0.000000
      6       1.000000   0.000000   0.000000  -0.000000   0.000000   0.001856
      7       0.000000   1.000000   0.000000  -0.000787  -0.012840   0.000000
      8       0.000000   0.000000   1.000000   0.000000   0.000000   0.000000
      9      -0.000000  -0.000787   0.000000   1.000000   0.219059  -0.000000
     10       0.000000  -0.012840   0.000000   0.219059   1.000000  -0.000000
     11       0.001856   0.000000   0.000000  -0.000000  -0.000000   1.000000
     12      -0.000000  -0.019245   0.000000   0.000000  -0.000000  -0.000000
     13       0.000000   0.000000   0.001856   0.000000   0.000000   0.000000
     14       0.000000  -0.067825   0.000000   0.184261   0.812273  -0.000000
     15       0.024966   0.000000   0.000000  -0.000000   0.000000   0.569754
     16       0.000000  -0.159294   0.000000   0.000000  -0.000000  -0.000000
     17       0.000000   0.000000   0.024966   0.000000   0.000000   0.000000
     18      -0.088067   0.000000   0.000000   0.000000   0.000000   0.000000
     19      -0.444872   0.000000   0.000000   0.000000   0.000000  -0.000000
     20      -0.103648   0.000000   0.000000   0.000000   0.000000  -0.000000
     21       0.000000   0.141278   0.000000   0.000000  -0.000000   0.000000
     22       0.000000   0.000000   0.141278   0.000000   0.000000   0.000000
     23      -0.638477   0.000000   0.000000   0.000001   0.000133  -0.000105
     24      -0.115910   0.000000   0.000000   0.000002   0.000224  -0.000095
     25       0.000000   0.504978   0.000000  -0.000005  -0.000610   0.000483
     26       0.000000   0.000000   0.504978   0.000000   0.000000   0.000000
     27      -0.000071  -0.000229   0.000000   0.000023   0.035501  -0.067300
     28      -0.000895  -0.002880   0.000000   0.018781   0.242071  -0.359807
     29      -0.000070  -0.001209   0.000000   0.040860   0.259280  -0.319609
     30      -0.001209  -0.003584   0.000000   0.000000  -0.000000   0.000000
     31       0.000000   0.000000   0.000305   0.000000   0.000000   0.000000
     32      -0.006849  -0.022042   0.000000   0.086501   0.446939  -0.365473
     33       0.000787  -0.018105   0.000000   0.174455   0.618586  -0.200372
     34      -0.018105  -0.051850   0.000000   0.000000  -0.000000   0.000000
     35       0.000000   0.000000   0.006414   0.000000   0.000000   0.000000
     36       0.273060  -0.000000   0.436581   0.000000   0.000001   0.000000
     37       0.309037  -0.000000   0.494102   0.000102   0.002185   0.000563
     38       0.000729  -0.004409   0.001165   0.032609   0.273116   0.195552
     39       0.008384  -0.050728   0.013405   0.092101   0.475730   0.140914
     40       0.273060  -0.000000  -0.436581   0.000000   0.000001   0.000000
     41       0.309037  -0.000000  -0.494102   0.000102   0.002185   0.000563
     42       0.000729  -0.004409  -0.001165   0.032609   0.273116   0.195552
     43       0.008384  -0.050728  -0.013405   0.092101   0.475730   0.140914
                 12         13         14         15         16         17    
      0       0.000000   0.000000   0.000151  -0.000000   0.000787   0.000000
      1       0.000028   0.000000   0.003115   0.000000   0.012840   0.000000
      2      -0.000000   0.000000  -0.000000   0.001856  -0.000000   0.000000
      3      -0.000086   0.000000  -0.005041   0.000000  -0.019245   0.000000
      4       0.000000   0.000004   0.000000   0.000000   0.000000   0.001856
      5       0.005041   0.000000   0.024966   0.000000   0.067825   0.000000
      6      -0.000000   0.000000   0.000000   0.024966   0.000000   0.000000
      7      -0.019245   0.000000  -0.067825   0.000000  -0.159294   0.000000
      8       0.000000   0.001856   0.000000   0.000000   0.000000   0.024966
      9       0.000000   0.000000   0.184261  -0.000000   0.000000   0.000000
     10      -0.000000   0.000000   0.812273   0.000000  -0.000000   0.000000
     11      -0.000000   0.000000  -0.000000   0.569754  -0.000000   0.000000
     12       1.000000   0.000000  -0.000000  -0.000000   0.569754   0.000000
     13       0.000000   1.000000   0.000000   0.000000   0.000000   0.569754
     14      -0.000000   0.000000   1.000000   0.000000   0.000000   0.000000
     15      -0.000000   0.000000   0.000000   1.000000   0.000000   0.000000
     16       0.569754   0.000000   0.000000   0.000000   1.000000   0.000000
     17       0.000000   0.569754   0.000000   0.000000   0.000000   1.000000
     18       0.000000   0.000000   0.000033  -0.000064   0.000173   0.000000
     19       0.000000   0.000000   0.000486  -0.000830   0.002256   0.000000
     20       0.000000   0.000000   0.000238  -0.000173   0.001118   0.000000
     21      -0.000000   0.000000  -0.000648   0.001118  -0.002800   0.000000
     22       0.000000   0.000000   0.000000   0.000000   0.000000   0.000239
     23       0.000285   0.000000   0.005527  -0.006799   0.018482   0.000000
     24       0.000483   0.000000   0.005375  -0.001234   0.017973   0.000000
     25      -0.001230   0.000000  -0.014610   0.017973  -0.043476   0.000000
     26       0.000000   0.000083   0.000000   0.000000   0.000000   0.005378
     27      -0.000000   0.000000   0.059509  -0.098478  -0.000000   0.000000
     28      -0.000000   0.000000   0.334023  -0.479070   0.000000   0.000000
     29      -0.000000   0.000000   0.152900  -0.042979   0.000000   0.000000
     30       0.134510   0.000000   0.000000   0.000000   0.181115   0.000000
     31       0.000000   0.134510   0.000000   0.000000   0.000000   0.181115
     32      -0.000000   0.000000   0.618966  -0.643183   0.000000   0.000000
     33      -0.000000   0.000000   0.508421   0.073930   0.000000   0.000000
     34       0.342210   0.000000   0.000000   0.000000   0.602243   0.000000
     35       0.000000   0.342210   0.000000   0.000000   0.000000   0.602243
     36       0.000002   0.000001   0.001018   0.000729   0.004409   0.001165
     37       0.003408   0.000901   0.019103   0.008384   0.050728   0.013405
     38       0.000000   0.312657   0.376677   0.273060   0.000000   0.436581
     39      -0.000000   0.225299   0.704119   0.309037   0.000000   0.494102
     40       0.000002  -0.000001   0.001018   0.000729   0.004409  -0.001165
     41       0.003408  -0.000901   0.019103   0.008384   0.050728  -0.013405
     42       0.000000  -0.312657   0.376677   0.273060   0.000000  -0.436581
     43      -0.000000  -0.225299   0.704119   0.309037   0.000000  -0.494102
                 18         19         20         21         22         23    
      0       0.000001   0.004726   0.011930  -0.000000   0.000000   0.056134
      1       0.014983   0.137215   0.171164   0.000000   0.000000   0.331989
      2      -0.032975  -0.226476  -0.245807  -0.000000   0.000000  -0.314862
      3       0.000000   0.000000   0.000000   0.069274   0.000000   0.000000
      4       0.000000   0.000000   0.000000   0.000000   0.069274   0.000000
      5       0.044953   0.261923   0.141201   0.000000   0.000000   0.519000
      6      -0.088067  -0.444872  -0.103648   0.000000   0.000000  -0.638477
      7       0.000000   0.000000   0.000000   0.141278   0.000000   0.000000
      8       0.000000   0.000000   0.000000   0.000000   0.141278   0.000000
      9       0.000000   0.000000   0.000000   0.000000   0.000000   0.000001
     10       0.000000   0.000000   0.000000  -0.000000   0.000000   0.000133
     11       0.000000  -0.000000  -0.000000   0.000000   0.000000  -0.000105
     12       0.000000   0.000000   0.000000  -0.000000   0.000000   0.000285
     13       0.000000   0.000000   0.000000   0.000000   0.000000   0.000000
     14       0.000033   0.000486   0.000238  -0.000648   0.000000   0.005527
     15      -0.000064  -0.000830  -0.000173   0.001118   0.000000  -0.006799
     16       0.000173   0.002256   0.001118  -0.002800   0.000000   0.018482
     17       0.000000   0.000000   0.000000   0.000000   0.000239   0.000000
     18       1.000000   0.233690   0.000000   0.000000   0.000000   0.167280
     19       0.233690   1.000000  -0.000000   0.000000   0.000000   0.763641
     20       0.000000  -0.000000   1.000000  -0.000000   0.000000   0.000000
     21       0.000000   0.000000  -0.000000   1.000000   0.000000  -0.000000
     22       0.000000   0.000000   0.000000   0.000000   1.000000   0.000000
     23       0.167280   0.763641   0.000000  -0.000000   0.000000   1.000000
     24      -0.000000  -0.000000   0.501521  -0.000000   0.000000   0.000000
     25       0.000000   0.000000  -0.000000   0.501521   0.000000   0.000000
     26       0.000000   0.000000   0.000000   0.000000   0.501521   0.000000
     27       0.000000   0.000000   0.000000   0.000000   0.000000   0.000002
     28       0.000000   0.000000   0.000000  -0.000000   0.000000   0.000071
     29       0.000000  -0.000000   0.000000   0.000000   0.000000  -0.000008
     30       0.000000   0.000000   0.000000  -0.000000   0.000000   0.000133
     31       0.000000   0.000000   0.000000   0.000000   0.000000   0.000000
     32       0.000002   0.000071   0.000008  -0.000133   0.000000   0.002672
     33      -0.000001  -0.000022   0.000036   0.000041   0.000000  -0.000525
     34       0.000012   0.000383   0.000041  -0.000686   0.000000   0.009182
     35       0.000000   0.000000   0.000000   0.000000   0.000039   0.000000
     36       0.000025   0.002013   0.003668   0.000000   0.001818   0.039751
     37       0.009990   0.070460   0.051639   0.000000   0.025594   0.199230
     38       0.000000   0.000000   0.000000  -0.000000   0.000000   0.000009
     39       0.000010   0.000165   0.000112  -0.000210   0.000056   0.002405
     40       0.000025   0.002013   0.003668   0.000000  -0.001818   0.039751
     41       0.009990   0.070460   0.051639   0.000000  -0.025594   0.199230
     42       0.000000   0.000000   0.000000  -0.000000  -0.000000   0.000009
     43       0.000010   0.000165   0.000112  -0.000210  -0.000056   0.002405
                 24         25         26         27         28         29    
      0       0.133981  -0.000000   0.000000   0.000000   0.000000   0.000000
      1       0.545843   0.000000   0.000000   0.000000   0.000000   0.000000
      2      -0.302644  -0.000000   0.000000   0.000000  -0.000000  -0.000000
      3       0.000000   0.249027   0.000000   0.000000  -0.000000  -0.000000
      4       0.000000   0.000000   0.249027   0.000000   0.000000   0.000000
      5       0.504702   0.000000   0.000000   0.000043   0.000621   0.000258
      6      -0.115910   0.000000   0.000000  -0.000071  -0.000895  -0.000070
      7       0.000000   0.504978   0.000000  -0.000229  -0.002880  -0.001209
      8       0.000000   0.000000   0.504978   0.000000   0.000000   0.000000
      9       0.000002  -0.000005   0.000000   0.000023   0.018781   0.040860
     10       0.000224  -0.000610   0.000000   0.035501   0.242071   0.259280
     11      -0.000095   0.000483   0.000000  -0.067300  -0.359807  -0.319609
     12       0.000483  -0.001230   0.000000  -0.000000  -0.000000  -0.000000
     13       0.000000   0.000000   0.000083   0.000000   0.000000   0.000000
     14       0.005375  -0.014610   0.000000   0.059509   0.334023   0.152900
     15      -0.001234   0.017973   0.000000  -0.098478  -0.479070  -0.042979
     16       0.017973  -0.043476   0.000000  -0.000000   0.000000   0.000000
     17       0.000000   0.000000   0.005378   0.000000   0.000000   0.000000
     18      -0.000000   0.000000   0.000000   0.000000   0.000000   0.000000
     19      -0.000000   0.000000   0.000000   0.000000   0.000000  -0.000000
     20       0.501521  -0.000000   0.000000   0.000000   0.000000   0.000000
     21      -0.000000   0.501521   0.000000   0.000000  -0.000000   0.000000
     22       0.000000   0.000000   0.501521   0.000000   0.000000   0.000000
     23       0.000000   0.000000   0.000000   0.000002   0.000071  -0.000008
     24       1.000000   0.000000   0.000000   0.000001   0.000022   0.000036
     25       0.000000   1.000000   0.000000  -0.000012  -0.000383   0.000041
     26       0.000000   0.000000   1.000000   0.000000   0.000000   0.000000
     27       0.000001  -0.000012   0.000000   1.000000   0.233690  -0.000000
     28       0.000022  -0.000383   0.000000   0.233690   1.000000   0.000000
     29       0.000036   0.000041   0.000000  -0.000000   0.000000   1.000000
     30       0.000041  -0.000686   0.000000  -0.000000  -0.000000   0.000000
     31       0.000000   0.000000   0.000039   0.000000   0.000000   0.000000
     32       0.000525  -0.009182   0.000000   0.167280   0.763641   0.000000
     33       0.002569   0.001803   0.000000   0.000000  -0.000000   0.501521
     34       0.001803  -0.028885   0.000000  -0.000000  -0.000000   0.000000
     35       0.000000   0.000000   0.002672   0.000000   0.000000   0.000000
     36       0.104205   0.000000   0.051648   0.000000   0.000000   0.000000
     37       0.273035   0.000000   0.135325   0.000015   0.000234   0.000142
     38       0.000024  -0.000045   0.000012   0.000112   0.005401   0.008922
     39       0.003296  -0.006182   0.001634   0.014889   0.099832   0.065732
     40       0.104205   0.000000  -0.051648   0.000000   0.000000   0.000000
     41       0.273035   0.000000  -0.135325   0.000015   0.000234   0.000142
     42       0.000024  -0.000045  -0.000012   0.000112   0.005401   0.008922
     43       0.003296  -0.006182  -0.001634   0.014889   0.099832   0.065732
                 30         31         32         33         34         35    
      0       0.000000   0.000000   0.000001   0.000003   0.000008   0.000000
      1       0.000000   0.000000   0.000181   0.000257   0.000828   0.000000
      2      -0.000000   0.000000  -0.000120  -0.000060  -0.000555   0.000000
      3      -0.000001   0.000000  -0.000387  -0.000555  -0.001674   0.000000
      4       0.000000   0.000000   0.000000   0.000000   0.000000   0.000113
      5       0.000830   0.000000   0.006592   0.005414   0.017424   0.000000
      6      -0.001209   0.000000  -0.006849   0.000787  -0.018105   0.000000
      7      -0.003584   0.000000  -0.022042  -0.018105  -0.051850   0.000000
      8       0.000000   0.000305   0.000000   0.000000   0.000000   0.006414
      9       0.000000   0.000000   0.086501   0.174455   0.000000   0.000000
     10      -0.000000   0.000000   0.446939   0.618586  -0.000000   0.000000
     11       0.000000   0.000000  -0.365473  -0.200372   0.000000   0.000000
     12       0.134510   0.000000  -0.000000  -0.000000   0.342210   0.000000
     13       0.000000   0.134510   0.000000   0.000000   0.000000   0.342210
     14       0.000000   0.000000   0.618966   0.508421   0.000000   0.000000
     15       0.000000   0.000000  -0.643183   0.073930   0.000000   0.000000
     16       0.181115   0.000000   0.000000   0.000000   0.602243   0.000000
     17       0.000000   0.181115   0.000000   0.000000   0.000000   0.602243
     18       0.000000   0.000000   0.000002  -0.000001   0.000012   0.000000
     19       0.000000   0.000000   0.000071  -0.000022   0.000383   0.000000
     20       0.000000   0.000000   0.000008   0.000036   0.000041   0.000000
     21      -0.000000   0.000000  -0.000133   0.000041  -0.000686   0.000000
     22       0.000000   0.000000   0.000000   0.000000   0.000000   0.000039
     23       0.000133   0.000000   0.002672  -0.000525   0.009182   0.000000
     24       0.000041   0.000000   0.000525   0.002569   0.001803   0.000000
     25      -0.000686   0.000000  -0.009182   0.001803  -0.028885   0.000000
     26       0.000000   0.000039   0.000000   0.000000   0.000000   0.002672
     27      -0.000000   0.000000   0.167280   0.000000  -0.000000   0.000000
     28      -0.000000   0.000000   0.763641  -0.000000  -0.000000   0.000000
     29       0.000000   0.000000   0.000000   0.501521   0.000000   0.000000
     30       1.000000   0.000000   0.000000   0.000000   0.501521   0.000000
     31       0.000000   1.000000   0.000000   0.000000   0.000000   0.501521
     32       0.000000   0.000000   1.000000   0.000000   0.000000   0.000000
     33       0.000000   0.000000   0.000000   1.000000   0.000000   0.000000
     34       0.501521   0.000000   0.000000   0.000000   1.000000   0.000000
     35       0.000000   0.501521   0.000000   0.000000   0.000000   1.000000
     36       0.000000   0.000000   0.000015   0.000035   0.000073   0.000019
     37       0.000299   0.000079   0.003103   0.003796   0.007975   0.002107
     38      -0.000000   0.004953   0.064745   0.151903  -0.000000   0.084325
     39      -0.000000   0.036489   0.257026   0.314489  -0.000000   0.174582
     40       0.000000  -0.000000   0.000015   0.000035   0.000073  -0.000019
     41       0.000299  -0.000079   0.003103   0.003796   0.007975  -0.002107
     42      -0.000000  -0.004953   0.064745   0.151903  -0.000000  -0.084325
     43      -0.000000  -0.036489   0.257026   0.314489  -0.000000  -0.174582
                 36         37         38         39         40         41    
      0       0.032609   0.092101   0.000000   0.000102   0.032609   0.092101
      1       0.273116   0.475730   0.000001   0.002185   0.273116   0.475730
      2       0.195552   0.140914   0.000000   0.000563   0.195552   0.140914
      3      -0.000000   0.000000  -0.000002  -0.003408  -0.000000   0.000000
      4       0.312657   0.225299   0.000001   0.000901  -0.312657  -0.225299
      5       0.376677   0.704119   0.001018   0.019103   0.376677   0.704119
      6       0.273060   0.309037   0.000729   0.008384   0.273060   0.309037
      7      -0.000000  -0.000000  -0.004409  -0.050728  -0.000000  -0.000000
      8       0.436581   0.494102   0.001165   0.013405  -0.436581  -0.494102
      9       0.000000   0.000102   0.032609   0.092101   0.000000   0.000102
     10       0.000001   0.002185   0.273116   0.475730   0.000001   0.002185
     11       0.000000   0.000563   0.195552   0.140914   0.000000   0.000563
     12       0.000002   0.003408   0.000000  -0.000000   0.000002   0.003408
     13       0.000001   0.000901   0.312657   0.225299  -0.000001  -0.000901
     14       0.001018   0.019103   0.376677   0.704119   0.001018   0.019103
     15       0.000729   0.008384   0.273060   0.309037   0.000729   0.008384
     16       0.004409   0.050728   0.000000   0.000000   0.004409   0.050728
     17       0.001165   0.013405   0.436581   0.494102  -0.001165  -0.013405
     18       0.000025   0.009990   0.000000   0.000010   0.000025   0.009990
     19       0.002013   0.070460   0.000000   0.000165   0.002013   0.070460
     20       0.003668   0.051639   0.000000   0.000112   0.003668   0.051639
     21       0.000000   0.000000  -0.000000  -0.000210   0.000000   0.000000
     22       0.001818   0.025594   0.000000   0.000056  -0.001818  -0.025594
     23       0.039751   0.199230   0.000009   0.002405   0.039751   0.199230
     24       0.104205   0.273035   0.000024   0.003296   0.104205   0.273035
     25       0.000000   0.000000  -0.000045  -0.006182   0.000000   0.000000
     26       0.051648   0.135325   0.000012   0.001634  -0.051648  -0.135325
     27       0.000000   0.000015   0.000112   0.014889   0.000000   0.000015
     28       0.000000   0.000234   0.005401   0.099832   0.000000   0.000234
     29       0.000000   0.000142   0.008922   0.065732   0.000000   0.000142
     30       0.000000   0.000299  -0.000000  -0.000000   0.000000   0.000299
     31       0.000000   0.000079   0.004953   0.036489  -0.000000  -0.000079
     32       0.000015   0.003103   0.064745   0.257026   0.000015   0.003103
     33       0.000035   0.003796   0.151903   0.314489   0.000035   0.003796
     34       0.000073   0.007975  -0.000000  -0.000000   0.000073   0.007975
     35       0.000019   0.002107   0.084325   0.174582  -0.000019  -0.002107
     36       1.000000   0.658292   0.000001   0.002178   0.013709   0.132497
     37       0.658292   1.000000   0.002178   0.029376   0.132497   0.373307
     38       0.000001   0.002178   1.000000   0.658292   0.000000   0.000446
     39       0.002178   0.029376   0.658292   1.000000   0.000446   0.010966
     40       0.013709   0.132497   0.000000   0.000446   1.000000   0.658292
     41       0.132497   0.373307   0.000446   0.010966   0.658292   1.000000
     42       0.000000   0.000446   0.013709   0.132497   0.000001   0.002178
     43       0.000446   0.010966   0.132497   0.373307   0.002178   0.029376
                  42         43    
      0       0.000000   0.000102
      1       0.000001   0.002185
      2       0.000000   0.000563
      3      -0.000002  -0.003408
      4      -0.000001  -0.000901
      5       0.001018   0.019103
      6       0.000729   0.008384
      7      -0.004409  -0.050728
      8      -0.001165  -0.013405
      9       0.032609   0.092101
     10       0.273116   0.475730
     11       0.195552   0.140914
     12       0.000000  -0.000000
     13      -0.312657  -0.225299
     14       0.376677   0.704119
     15       0.273060   0.309037
     16       0.000000   0.000000
     17      -0.436581  -0.494102
     18       0.000000   0.000010
     19       0.000000   0.000165
     20       0.000000   0.000112
     21      -0.000000  -0.000210
     22      -0.000000  -0.000056
     23       0.000009   0.002405
     24       0.000024   0.003296
     25      -0.000045  -0.006182
     26      -0.000012  -0.001634
     27       0.000112   0.014889
     28       0.005401   0.099832
     29       0.008922   0.065732
     30      -0.000000  -0.000000
     31      -0.004953  -0.036489
     32       0.064745   0.257026
     33       0.151903   0.314489
     34      -0.000000  -0.000000
     35      -0.084325  -0.174582
     36       0.000000   0.000446
     37       0.000446   0.010966
     38       0.013709   0.132497
     39       0.132497   0.373307
     40       0.000001   0.002178
     41       0.002178   0.029376
     42       1.000000   0.658292
     43       0.658292   1.000000
-------------------
DFT GRID GENERATION
-------------------

General Integration Accuracy     IntAcc      ...  4.340
Radial Grid Type                 RadialGrid  ... Gauss-Chebyshev
Angular Grid (max. acc.)         AngularGrid ... Lebedev-110
Angular grid pruning method      GridPruning ... 3 (G Style)
Weight generation scheme         WeightScheme... Becke
Basis function cutoff            BFCut       ...    1.0000e-10
Integration weight cutoff        WCut        ...    1.0000e-14
Grids for H and He will be reduced by one unit

# of grid points (after initial pruning)     ...   9920 (   0.0 sec)
# of grid points (after weights+screening)   ...   9600 (   0.0 sec)
nearest neighbour list constructed           ...    0.0 sec
Grid point re-assignment to atoms done       ...    0.0 sec
Grid point division into batches done        ...    0.0 sec
Reduced shell lists constructed in    0.1 sec

Total number of grid points                  ...     9600
Total number of batches                      ...      154
Average number of points per batch           ...       62
Average number of grid points per atom       ...     1200
Average number of shells per batch           ...    20.14 (71.94%)
Average number of basis functions per batch  ...    32.99 (74.99%)
Average number of large shells per batch     ...    16.52 (82.00%)
Average number of large basis fcns per batch ...    27.14 (82.24%)
Maximum spatial batch extension              ...  20.26, 18.31, 18.30 au
Average spatial batch extension              ...   4.86,  4.06,  4.43 au

Time for grid setup =    0.061 sec

------------------------------
INITIAL GUESS: MODEL POTENTIAL
------------------------------
Loading Hartree-Fock densities                     ... done
Calculating cut-offs                               ... done
Setting up the integral package                    ... done
Initializing the effective Hamiltonian             ... done
Starting the Coulomb interaction                   ... done (   0.0 sec)
Reading the grid                                   ... done
Mapping shells                                     ... done
Starting the XC term evaluation                    ... done (   0.0 sec)
  promolecular density results
     # of electrons  =     31.996886602
     EX              =    -27.640630577
     EC              =     -1.025426653
     EX+EC           =    -28.666057230
Transforming the Hamiltonian                       ... done (   0.0 sec)
Diagonalizing the Hamiltonian                      ... done (   0.0 sec)
Back transforming the eigenvectors                 ... done (   0.0 sec)
Now organizing SCF variables                       ... done
                      ------------------
                      INITIAL GUESS DONE (   0.2 sec)
                      ------------------
--------------
SCF ITERATIONS
--------------
               ***  Starting incremental Fock matrix formation  ***

                         ----------------------------
                         !        ITERATION     0   !
                         ----------------------------
   Total Energy        :    -228.140707733945 Eh
   Energy Change       :    -228.140707733945 Eh
   MAX-DP              :       0.071722383817
   RMS-DP              :       0.003404269108
   Actual Damping      :       0.7000
   Actual Level Shift  :       0.2500 Eh
   Int. Num. El.       :    30.99945548 (UP=   15.99979424 DN=   14.99966124)
   Exchange            :   -21.04293392
   Correlation         :    -1.00389804


                         ----------------------------
                         !        ITERATION     1   !
                         ----------------------------
   Total Energy        :    -228.198199774064 Eh
   Energy Change       :      -0.057492040120 Eh
   MAX-DP              :       0.055496558073
   RMS-DP              :       0.002175791237
   Actual Damping      :       0.7000
   Actual Level Shift  :       0.2500 Eh
   Int. Num. El.       :    30.99912466 (UP=   15.99955080 DN=   14.99957386)
   Exchange            :   -20.91534010
   Correlation         :    -1.00246536

                               ***Turning on DIIS***

                         ----------------------------
                         !        ITERATION     2   !
                         ----------------------------
   Total Energy        :    -228.210212901389 Eh
   Energy Change       :      -0.012013127324 Eh
   MAX-DP              :       0.087070071848
   RMS-DP              :       0.004087603494
   Actual Damping      :       0.0000
   Actual Level Shift  :       0.2500 Eh
   Int. Num. El.       :    30.99908033 (UP=   15.99949160 DN=   14.99958872)
   Exchange            :   -20.85398693
   Correlation         :    -1.00165186
   DIIS-Error          :       0.052848703860


                         ----------------------------
                         !        ITERATION     3   !
                         ----------------------------
   Total Energy        :    -228.240817721426 Eh
   Energy Change       :      -0.030604820038 Eh
   MAX-DP              :       0.038481580828
   RMS-DP              :       0.001957969968
   Actual Damping      :       0.0000
   Actual Level Shift  :       0.2500 Eh
   Int. Num. El.       :    30.99943669 (UP=   15.99970170 DN=   14.99973498)
   Exchange            :   -20.82802846
   Correlation         :    -1.00039658
   DIIS-Error          :       0.058240188009
   DIIS coefficients:
      0.38347   0.61653


                         ----------------------------
                         !        ITERATION     4   !
                         ----------------------------
   Total Energy        :    -228.243941354158 Eh
   Energy Change       :      -0.003123632732 Eh
   MAX-DP              :       0.014512966530
   RMS-DP              :       0.000784913841
   Actual Damping      :       0.0000
   Actual Level Shift  :       0.2500 Eh
   Int. Num. El.       :    30.99955118 (UP=   15.99982874 DN=   14.99972244)
   Exchange            :   -20.87890516
   Correlation         :    -1.00135283
   DIIS-Error          :       0.060311813523
   DIIS coefficients:
      0.34276   0.18739   0.46985


                         ----------------------------
                         !        ITERATION     5   !
                         ----------------------------
   Total Energy        :    -228.247727812556 Eh
   Energy Change       :      -0.003786458397 Eh
   MAX-DP              :       0.003221746433
   RMS-DP              :       0.000219827029
   Actual Damping      :       0.0000
   Actual Level Shift  :       0.2500 Eh
   Int. Num. El.       :    30.99944224 (UP=   15.99976940 DN=   14.99967285)
   Exchange            :   -20.85577186
   Correlation         :    -1.00133326
   DIIS-Error          :       0.006447287489
   DIIS coefficients:
      0.04641  -0.00157  -0.04906   1.00422


                         ----------------------------
                         !        ITERATION     6   !
                         ----------------------------
   Total Energy        :    -228.247881104737 Eh
   Energy Change       :      -0.000153292182 Eh
   MAX-DP              :       0.004080829379
   RMS-DP              :       0.000250355218
   Actual Damping      :       0.0000
   Actual Level Shift  :       0.0000 Eh
   Int. Num. El.       :    30.99943673 (UP=   15.99977690 DN=   14.99965982)
   Exchange            :   -20.85618204
   Correlation         :    -1.00134570
   DIIS-Error          :       0.000661540755
   DIIS coefficients:
     -0.01538  -0.01029   0.00224  -0.14098   1.16441


                         ----------------------------
                         !        ITERATION     7   !
                         ----------------------------
   Total Energy        :    -228.247904361588 Eh
   Energy Change       :      -0.000023256851 Eh
   MAX-DP              :       0.000849949345
   RMS-DP              :       0.000039546092
   Actual Damping      :       0.0000
   Actual Level Shift  :       0.2500 Eh
   Int. Num. El.       :    30.99944081 (UP=   15.99979201 DN=   14.99964880)
   Exchange            :   -20.85622814
   Correlation         :    -1.00129081
   DIIS-Error          :       0.003374071788
   DIIS coefficients:
      0.22585  -0.00232   0.00467  -0.10536   0.87716


                         ----------------------------
                         !        ITERATION     8   !
                         ----------------------------
   Total Energy        :    -228.247928491997 Eh
   Energy Change       :      -0.000024130408 Eh
   MAX-DP              :       0.001055613269
   RMS-DP              :       0.000042948957
   Actual Damping      :       0.0000
   Actual Level Shift  :       0.2500 Eh
   Int. Num. El.       :    30.99944252 (UP=   15.99979268 DN=   14.99964984)
   Exchange            :   -20.85649807
   Correlation         :    -1.00129100
   DIIS-Error          :       0.001956192512
   DIIS coefficients:
     -0.20629   0.72602  -0.00098  -0.06499   0.54624


                         ----------------------------
                         !        ITERATION     9   !
                         ----------------------------
   Total Energy        :    -228.247945554848 Eh
   Energy Change       :      -0.000017062852 Eh
   MAX-DP              :       0.007418731700
   RMS-DP              :       0.000275733073
   Actual Damping      :       0.0000
   Actual Level Shift  :       0.0000 Eh
   Int. Num. El.       :    30.99944372 (UP=   15.99979374 DN=   14.99964998)
   Exchange            :   -20.85651431
   Correlation         :    -1.00128609
   DIIS-Error          :       0.000981809595
   DIIS coefficients:
     -0.09417  -0.19911   1.13862  -0.01916   0.17382


                         ----------------------------
                         !        ITERATION    10   !
                         ----------------------------
   Total Energy        :    -228.247911082710 Eh
   Energy Change       :       0.000034472138 Eh
   MAX-DP              :       0.000278094571
   RMS-DP              :       0.000009516586
   Actual Damping      :       0.0000
   Actual Level Shift  :       0.2500 Eh
   Int. Num. El.       :    30.99945226 (UP=   15.99979689 DN=   14.99965537)
   Exchange            :   -20.85615857
   Correlation         :    -1.00123824
   DIIS-Error          :       0.005109325201
   DIIS coefficients:
     -0.01388  -0.05710   0.89828   0.11561   0.05710


                         ----------------------------
                         !        ITERATION    11   !
                         ----------------------------
   Total Energy        :    -228.247917825694 Eh
   Energy Change       :      -0.000006742984 Eh
   MAX-DP              :       0.000254956895
   RMS-DP              :       0.000008632269
   Actual Damping      :       0.0000
   Actual Level Shift  :       0.2500 Eh
   Int. Num. El.       :    30.99945260 (UP=   15.99979756 DN=   14.99965504)
   Exchange            :   -20.85628023
   Correlation         :    -1.00123862
   DIIS-Error          :       0.004782510639
   DIIS coefficients:
      0.00573  -0.01742   0.85672   0.06873   0.08624


                         ----------------------------
                         !        ITERATION    12   !
                         ----------------------------
   Total Energy        :    -228.247922563159 Eh
   Energy Change       :      -0.000004737465 Eh
   MAX-DP              :       0.000108789593
   RMS-DP              :       0.000004575602
   Actual Damping      :       0.0000
   Actual Level Shift  :       0.2500 Eh
   Int. Num. El.       :    30.99945290 (UP=   15.99979818 DN=   14.99965472)
   Exchange            :   -20.85636230
   Correlation         :    -1.00123779
   DIIS-Error          :       0.004560269482
   DIIS coefficients:
      0.06689   0.01427   0.82223   0.04080   0.05581


                         ----------------------------
                         !        ITERATION    13   !
                         ----------------------------
   Total Energy        :    -228.247925451466 Eh
   Energy Change       :      -0.000002888306 Eh
   MAX-DP              :       0.000064388192
   RMS-DP              :       0.000003172945
   Actual Damping      :       0.0000
   Actual Level Shift  :       0.2500 Eh
   Int. Num. El.       :    30.99945291 (UP=   15.99979837 DN=   14.99965454)
   Exchange            :   -20.85638426
   Correlation         :    -1.00123745
   DIIS-Error          :       0.004434438523
   DIIS coefficients:
      0.04810   0.05315   0.83604   0.02456   0.03814


                         ----------------------------
                         !        ITERATION    14   !
                         ----------------------------
   Total Energy        :    -228.247927405516 Eh
   Energy Change       :      -0.000001954050 Eh
   MAX-DP              :       0.003741284963
   RMS-DP              :       0.000178544430
   Actual Damping      :       0.0000
   Actual Level Shift  :       0.2500 Eh
   Int. Num. El.       :    30.99945287 (UP=   15.99979845 DN=   14.99965442)
   Exchange            :   -20.85639215
   Correlation         :    -1.00123726
   DIIS-Error          :       0.004354072061
   DIIS coefficients:
     -0.54266  -0.23286   4.19598  -1.47685  -0.94361


                         ----------------------------
                         !        ITERATION    15   !
                         ----------------------------
   Total Energy        :    -228.247952351768 Eh
   Energy Change       :      -0.000024946252 Eh
   MAX-DP              :       0.000908164192
   RMS-DP              :       0.000058901486
   Actual Damping      :       0.0000
   Actual Level Shift  :       0.2500 Eh
   Int. Num. El.       :    30.99945376 (UP=   15.99980368 DN=   14.99965007)
   Exchange            :   -20.85725450
   Correlation         :    -1.00122980
   DIIS-Error          :       0.004136332849
   DIIS coefficients:
      0.11778   0.12831   0.13920   0.50432   0.11040


                         ----------------------------
                         !        ITERATION    16   !
                         ----------------------------
   Total Energy        :    -228.247972231082 Eh
   Energy Change       :      -0.000019879314 Eh
   MAX-DP              :       0.000642883058
   RMS-DP              :       0.000028794387
   Actual Damping      :       0.0000
   Actual Level Shift  :       0.2500 Eh
   Int. Num. El.       :    30.99945100 (UP=   15.99980321 DN=   14.99964779)
   Exchange            :   -20.85717686
   Correlation         :    -1.00123704
   DIIS-Error          :       0.002541345938
   DIIS coefficients:
      0.11092   0.11596   0.12007  -0.02370   0.67674


                         ----------------------------
                         !        ITERATION    17   !
                         ----------------------------
   Total Energy        :    -228.247979494844 Eh
   Energy Change       :      -0.000007263762 Eh
   MAX-DP              :       0.000525892744
   RMS-DP              :       0.000020315705
   Actual Damping      :       0.0000
   Actual Level Shift  :       0.2500 Eh
   Int. Num. El.       :    30.99944984 (UP=   15.99980288 DN=   14.99964695)
   Exchange            :   -20.85697829
   Correlation         :    -1.00123418
   DIIS-Error          :       0.001595794423
   DIIS coefficients:
      0.85354   0.11503   0.11758  -0.05044  -0.03570


                         ----------------------------
                         !        ITERATION    18   !
                         ----------------------------
   Total Energy        :    -228.247983761993 Eh
   Energy Change       :      -0.000004267149 Eh
   MAX-DP              :       0.001371920062
   RMS-DP              :       0.000056159296
   Actual Damping      :       0.0000
   Actual Level Shift  :       0.0000 Eh
   Int. Num. El.       :    30.99944998 (UP=   15.99980324 DN=   14.99964674)
   Exchange            :   -20.85700921
   Correlation         :    -1.00123082
   DIIS-Error          :       0.000974271039
   DIIS coefficients:
     -0.04088   1.01348   0.12709  -0.01701  -0.08269


                         ----------------------------
                         !        ITERATION    19   !
                         ----------------------------
   Total Energy        :    -228.247986870760 Eh
   Energy Change       :      -0.000003108767 Eh
   MAX-DP              :       0.000662009536
   RMS-DP              :       0.000030179133
   Actual Damping      :       0.0000
   Actual Level Shift  :       0.0000 Eh
   Int. Num. El.       :    30.99945083 (UP=   15.99980355 DN=   14.99964728)
   Exchange            :   -20.85675925
   Correlation         :    -1.00121707
   DIIS-Error          :       0.000786102802
   DIIS coefficients:
      0.01824   0.33035   0.61760   0.00926   0.02455

               *** Restarting incremental Fock matrix formation ***
                                   *** Resetting DIIS ***

                         ----------------------------
                         !        ITERATION    20   !
                         ----------------------------
   Total Energy        :    -228.247989081003 Eh
   Energy Change       :      -0.000002210243 Eh
   MAX-DP              :       0.001187023334
   RMS-DP              :       0.000045787155
   Actual Damping      :       0.0000
   Actual Level Shift  :       0.0000 Eh
   Int. Num. El.       :    30.99945102 (UP=   15.99980475 DN=   14.99964627)
   Exchange            :   -20.85705280
   Correlation         :    -1.00121762
   DIIS-Error          :       0.000221252908


                         ----------------------------
                         !        ITERATION    21   !
                         ----------------------------
   Total Energy        :    -228.247987620756 Eh
   Energy Change       :       0.000001460248 Eh
   MAX-DP              :       0.000174457184
   RMS-DP              :       0.000007176039
   Actual Damping      :       0.0000
   Actual Level Shift  :       0.2500 Eh
   Int. Num. El.       :    30.99945096 (UP=   15.99980452 DN=   14.99964644)
   Exchange            :   -20.85665104
   Correlation         :    -1.00120409
   DIIS-Error          :       0.001330596121
   DIIS coefficients:
      0.87622   0.12378


                         ----------------------------
                         !        ITERATION    22   !
                         ----------------------------
   Total Energy        :    -228.247988973734 Eh
   Energy Change       :      -0.000001352979 Eh
   MAX-DP              :       0.000994092672
   RMS-DP              :       0.000036733732
   Actual Damping      :       0.0000
   Actual Level Shift  :       0.0000 Eh
   Int. Num. El.       :    30.99945129 (UP=   15.99980486 DN=   14.99964642)
   Exchange            :   -20.85676692
   Correlation         :    -1.00120481
   DIIS-Error          :       0.000887777760
   DIIS coefficients:
      0.82856   0.02333   0.14812


                         ----------------------------
                         !        ITERATION    23   !
                         ----------------------------
   Total Energy        :    -228.247990339614 Eh
   Energy Change       :      -0.000001365879 Eh
   MAX-DP              :       0.000281297770
   RMS-DP              :       0.000011783606
   Actual Damping      :       0.0000
   Actual Level Shift  :       0.0000 Eh
   Int. Num. El.       :    30.99945045 (UP=   15.99980507 DN=   14.99964538)
   Exchange            :   -20.85689210
   Correlation         :    -1.00120966
   DIIS-Error          :       0.000296956384
   DIIS coefficients:
      0.57648   0.04737   0.09357   0.28258

                 **** Energy Check signals convergence ****

               *****************************************************
               *                     SUCCESS                       *
               *           SCF CONVERGED AFTER  24 CYCLES          *
               *****************************************************

Setting up the final grid:

General Integration Accuracy     IntAcc      ...  4.670
Radial Grid Type                 RadialGrid  ... Gauss-Chebyshev
Angular Grid (max. acc.)         AngularGrid ... Lebedev-302
Angular grid pruning method      GridPruning ... 3 (G Style)
Weight generation scheme         WeightScheme... Becke
Basis function cutoff            BFCut       ...    1.0000e-10
Integration weight cutoff        WCut        ...    1.0000e-14
Grids for H and He will be reduced by one unit

# of grid points (after initial pruning)     ...  38424 (   0.0 sec)
# of grid points (after weights+screening)   ...  37033 (   0.0 sec)
nearest neighbour list constructed           ...    0.0 sec
Grid point re-assignment to atoms done       ...    0.0 sec
Grid point division into batches done        ...    0.1 sec
Reduced shell lists constructed in    0.3 sec

Total number of grid points                  ...    37033
Total number of batches                      ...      583
Average number of points per batch           ...       63
Average number of grid points per atom       ...     4629
Average number of shells per batch           ...    18.28 (65.30%)
Average number of basis functions per batch  ...    30.04 (68.28%)
Average number of large shells per batch     ...    14.79 (80.87%)
Average number of large basis fcns per batch ...    24.35 (81.04%)
Maximum spatial batch extension              ...  19.23, 16.88, 17.81 au
Average spatial batch extension              ...   3.03,  2.90,  2.96 au

Final grid set up in    0.3 sec
Final integration                            ... done (   0.2 sec)
Change in XC energy                          ...    -0.000090781
Integrated number of electrons               ...    31.000007048
Previous integrated no of electrons          ...    30.999451067

----------------
TOTAL SCF ENERGY
----------------

Total Energy       :         -228.24808143 Eh           -6210.94605 eV

Components:
Nuclear Repulsion  :          100.88579771 Eh            2745.24212 eV
Electronic Energy  :         -329.13387914 Eh           -8956.18818 eV
One Electron Energy:         -502.53030190 Eh          -13674.54472 eV
Two Electron Energy:          173.39642276 Eh            4718.35654 eV

Virial components:
Potential Energy   :         -455.95743770 Eh          -12407.23265 eV
Kinetic Energy     :          227.70935627 Eh            6196.28660 eV
Virial Ratio       :            2.00236585


DFT components:
N(Alpha)           :       16.000000111581 electrons
N(Beta)            :       15.000006936503 electrons
N(Total)           :       31.000007048084 electrons
E(X)               :      -20.857122918678 Eh       
E(C)               :       -1.001150850336 Eh       
E(XC)              :      -21.858273769014 Eh       

---------------
SCF CONVERGENCE
---------------

  Last Energy change         ...   -3.0738e-07  Tolerance :   1.0000e-06
  Last MAX-Density change    ...    2.8290e-04  Tolerance :   1.0000e-05
  Last RMS-Density change    ...    1.0085e-05  Tolerance :   1.0000e-06
  Last DIIS Error            ...    1.0695e-04  Tolerance :   1.0000e-06

             **** THE GBW FILE WAS UPDATED (orca.gbw) ****
             **** DENSITY FILE WAS UPDATED (orca.scfp.tmp) ****
             **** ENERGY FILE WAS UPDATED (orca.en.tmp) ****
----------------------
UHF SPIN CONTAMINATION
----------------------

Warning: in a DFT calculation there is little theoretical justification to 
         calculate <S**2> as in Hartree-Fock theory. We will do it anyways
         but you should keep in mind that the values have only limited relevance

Expectation value of <S**2>     :     0.758780
Ideal value S*(S+1) for S=0.5   :     0.750000
Deviation                       :     0.008780

----------------
ORBITAL ENERGIES
----------------
                 SPIN UP ORBITALS
  NO   OCC          E(Eh)            E(eV) 
   0   1.0000     -19.553880      -532.0881 
   1   1.0000     -19.541867      -531.7612 
   2   1.0000     -10.583353      -287.9877 
   3   1.0000     -10.582487      -287.9641 
   4   1.0000      -1.489022       -40.5184 
   5   1.0000      -1.347179       -36.6586 
   6   1.0000      -0.912658       -24.8347 
   7   1.0000      -0.907079       -24.6829 
   8   1.0000      -0.832205       -22.6455 
   9   1.0000      -0.759665       -20.6715 
  10   1.0000      -0.753091       -20.4926 
  11   1.0000      -0.738487       -20.0953 
  12   1.0000      -0.708534       -19.2802 
  13   1.0000      -0.650165       -17.6919 
  14   1.0000      -0.564956       -15.3732 
  15   1.0000      -0.560708       -15.2576 
  16   0.0000      -0.306198        -8.3321 
  17   0.0000      -0.257630        -7.0105 
  18   0.0000      -0.098613        -2.6834 
  19   0.0000      -0.077790        -2.1168 
  20   0.0000      -0.028046        -0.7632 
  21   0.0000      -0.025428        -0.6919 
  22   0.0000      -0.004929        -0.1341 
  23   0.0000       0.027241         0.7413 
  24   0.0000       0.222697         6.0599 
  25   0.0000       0.366974         9.9859 
  26   0.0000       0.372856        10.1459 
  27   0.0000       0.375627        10.2213 
  28   0.0000       0.433612        11.7992 
  29   0.0000       0.444843        12.1048 
  30   0.0000       0.584702        15.9105 
  31   0.0000       0.607485        16.5305 
  32   0.0000       0.650476        17.7004 
  33   0.0000       0.678758        18.4699 
  34   0.0000       0.680785        18.5251 
  35   0.0000       0.700457        19.0604 
  36   0.0000       0.730731        19.8842 
  37   0.0000       0.753434        20.5020 
  38   0.0000       0.774462        21.0742 
  39   0.0000       0.788928        21.4678 
  40   0.0000       0.867795        23.6139 
  41   0.0000       0.907662        24.6987 
  42   0.0000       1.347041        36.6549 
  43   0.0000       1.429515        38.8991 

                 SPIN DOWN ORBITALS
  NO   OCC          E(Eh)            E(eV) 
   0   1.0000     -19.542177      -531.7697 
   1   1.0000     -19.529221      -531.4171 
   2   1.0000     -10.584453      -288.0176 
   3   1.0000     -10.583821      -288.0004 
   4   1.0000      -1.468404       -39.9573 
   5   1.0000      -1.321437       -35.9581 
   6   1.0000      -0.904171       -24.6037 
   7   1.0000      -0.892049       -24.2739 
   8   1.0000      -0.797053       -21.6889 
   9   1.0000      -0.737903       -20.0794 
  10   1.0000      -0.737855       -20.0780 
  11   1.0000      -0.729322       -19.8459 
  12   1.0000      -0.695115       -18.9150 
  13   1.0000      -0.637773       -17.3547 
  14   1.0000      -0.478760       -13.0277 
  15   0.0000      -0.442032       -12.0283 
  16   0.0000      -0.302839        -8.2407 
  17   0.0000      -0.253794        -6.9061 
  18   0.0000      -0.092012        -2.5038 
  19   0.0000      -0.071492        -1.9454 
  20   0.0000      -0.024180        -0.6580 
  21   0.0000      -0.016706        -0.4546 
  22   0.0000       0.007673         0.2088 
  23   0.0000       0.031396         0.8543 
  24   0.0000       0.220130         5.9900 
  25   0.0000       0.368415        10.0251 
  26   0.0000       0.373895        10.1742 
  27   0.0000       0.385186        10.4814 
  28   0.0000       0.444261        12.0890 
  29   0.0000       0.449163        12.2223 
  30   0.0000       0.590256        16.0617 
  31   0.0000       0.618517        16.8307 
  32   0.0000       0.667411        18.1612 
  33   0.0000       0.688140        18.7252 
  34   0.0000       0.696044        18.9403 
  35   0.0000       0.710876        19.3439 
  36   0.0000       0.738493        20.0954 
  37   0.0000       0.761064        20.7096 
  38   0.0000       0.780093        21.2274 
  39   0.0000       0.798591        21.7308 
  40   0.0000       0.898344        24.4452 
  41   0.0000       0.936155        25.4741 
  42   0.0000       1.361902        37.0592 
  43   0.0000       1.443356        39.2757 
------------------
MOLECULAR ORBITALS
------------------
                      0         1         2         3         4         5   
                 -19.55388 -19.54187 -10.58335 -10.58249  -1.48902  -1.34718
                   1.00000   1.00000   1.00000   1.00000   1.00000   1.00000
                  --------  --------  --------  --------  --------  --------
  0C   1s        -0.000019 -0.000138  0.016459 -0.995044  0.000336 -0.101751
  0C   2s        -0.000276  0.000335  0.001035 -0.032493  0.000242  0.208631
  0C   1pz       -0.000018  0.000101  0.000052  0.000922  0.000121 -0.169186
  0C   1px        0.000138 -0.000041 -0.000276  0.000153 -0.000146 -0.001803
  0C   1py        0.000000 -0.000000  0.000000 -0.000000  0.000000 -0.000000
  0C   3s         0.000825 -0.007494 -0.001857  0.017431 -0.002826  0.036533
  0C   2pz       -0.000214  0.004955  0.000219  0.002002  0.001928  0.044987
  0C   2px       -0.000336  0.000099  0.000644 -0.000261  0.001006 -0.001608
  0C   2py       -0.000000 -0.000000 -0.000000  0.000000 -0.000000 -0.000000
  1C   1s        -0.000278 -0.000010 -0.994877 -0.016406  0.127222  0.000240
  1C   2s         0.000135 -0.000172 -0.034903 -0.000135 -0.246772 -0.001600
  1C   1pz       -0.000703 -0.000034  0.003289  0.000184  0.230599  0.000893
  1C   1px        0.000053 -0.000099 -0.000143  0.000291 -0.001539 -0.000196
  1C   1py       -0.000000 -0.000000 -0.000000 -0.000000  0.000000 -0.000000
  1C   3s        -0.010868  0.000701  0.015088 -0.001852 -0.037150  0.005056
  1C   2pz        0.006335 -0.000173  0.002577  0.000485 -0.046122 -0.002882
  1C   2px       -0.000134  0.000263  0.000257 -0.000731 -0.001044  0.001635
  1C   2py        0.000000  0.000000 -0.000000  0.000000  0.000000  0.000000
  2O   1s         0.000301 -0.995161 -0.000010  0.000057  0.000358 -0.201048
  2O   2s         0.000094 -0.028058 -0.000194  0.000343 -0.001054  0.458100
  2O   1pz        0.000017 -0.002370 -0.000043  0.000499 -0.000355  0.171685
  2O   1px        0.000015  0.000031  0.000002 -0.000003  0.000022 -0.002540
  2O   1py       -0.000000 -0.000000 -0.000000  0.000000 -0.000000  0.000000
  2O   3s        -0.000452  0.016105  0.000825 -0.000573  0.001272  0.437092
  2O   2pz       -0.000200  0.005114  0.000348  0.001199  0.000775  0.082817
  2O   2px        0.000021 -0.000032 -0.000135  0.000053  0.000550 -0.002752
  2O   2py        0.000000  0.000000  0.000000 -0.000000  0.000000  0.000000
  3O   1s        -0.995097 -0.000291  0.000644 -0.000005  0.197067  0.000673
  3O   2s        -0.029459  0.000077  0.000043 -0.000290 -0.445062 -0.001109
  3O   1pz       -0.003076  0.000008  0.000166 -0.000038 -0.222909 -0.000765
  3O   1px       -0.000025  0.000000  0.000006 -0.000003 -0.001822  0.000203
  3O   1py        0.000000  0.000000 -0.000000  0.000000  0.000000  0.000000
  3O   3s         0.020384 -0.000456  0.002929  0.001468 -0.338037 -0.004966
  3O   2pz        0.005876 -0.000151  0.003731  0.000587 -0.042879 -0.001610
  3O   2px        0.000043 -0.000048 -0.000065  0.000171 -0.001689  0.000814
  3O   2py       -0.000000 -0.000000  0.000000 -0.000000  0.000000 -0.000000
  4H   1s        -0.000056  0.000339  0.000071  0.001024 -0.000027  0.025975
  4H   2s        -0.000088 -0.000131  0.000335 -0.004731 -0.000025 -0.008677
  5H   1s         0.000366 -0.000045  0.001062  0.000125 -0.022952 -0.000152
  5H   2s         0.000045 -0.000076 -0.004512  0.000222  0.011695 -0.000112
  6H   1s        -0.000056  0.000339  0.000071  0.001024 -0.000027  0.025975
  6H   2s        -0.000088 -0.000131  0.000335 -0.004731 -0.000025 -0.008677
  7H   1s         0.000366 -0.000045  0.001062  0.000125 -0.022952 -0.000152
  7H   2s         0.000045 -0.000076 -0.004512  0.000222  0.011695 -0.000112
                      6         7         8         9        10        11   
                  -0.91266  -0.90708  -0.83221  -0.75967  -0.75309  -0.73849
                   1.00000   1.00000   1.00000   1.00000   1.00000   1.00000
                  --------  --------  --------  --------  --------  --------
  0C   1s         0.164269 -0.054562  0.000000  0.000000 -0.001485 -0.003272
  0C   2s        -0.357742  0.118038 -0.000000  0.000000  0.007202  0.015034
  0C   1pz       -0.168280  0.054803 -0.000000  0.000000 -0.005433 -0.011589
  0C   1px        0.006611  0.001473  0.000000 -0.000000  0.006866  0.019695
  0C   1py        0.000000  0.000000 -0.004694 -0.445620  0.000000 -0.000000
  0C   3s        -0.345456  0.118957  0.000000 -0.000000 -0.005579 -0.010082
  0C   2pz       -0.057336  0.016742 -0.000000  0.000000  0.004311  0.005608
  0C   2px        0.011533 -0.003855 -0.000000  0.000000  0.007831  0.018077
  0C   2py       -0.000000 -0.000000 -0.002393 -0.200101  0.000000 -0.000000
  1C   1s         0.049218  0.152877 -0.000000  0.000000 -0.019618  0.000250
  1C   2s        -0.108716 -0.337849  0.000000 -0.000000  0.101575 -0.000687
  1C   1pz       -0.070009 -0.211540  0.000000 -0.000000 -0.373220  0.046386
  1C   1px       -0.006458 -0.004368  0.000000  0.000000 -0.041863 -0.374122
  1C   1py        0.000000 -0.000000 -0.437983  0.006532 -0.000000 -0.000000
  1C   3s        -0.103206 -0.336549 -0.000000  0.000000 -0.025043 -0.013652
  1C   2pz       -0.022696 -0.061921  0.000000 -0.000000 -0.054024  0.013105
  1C   2px       -0.004039 -0.010661 -0.000000  0.000000 -0.018825 -0.146725
  1C   2py       -0.000000  0.000000 -0.170473  0.001897 -0.000000  0.000000
  2O   1s        -0.083353  0.027302 -0.000000 -0.000000  0.001184  0.002492
  2O   2s         0.197992 -0.064230  0.000000 -0.000000 -0.002480 -0.005115
  2O   1pz       -0.102714  0.035411 -0.000000 -0.000000  0.009547  0.021210
  2O   1px        0.001100  0.001328 -0.000000  0.000000  0.011037  0.029165
  2O   1py        0.000000  0.000000 -0.003193 -0.331876  0.000000 -0.000000
  2O   3s         0.255676 -0.087224  0.000000  0.000000 -0.000995 -0.004578
  2O   2pz       -0.030931  0.009160 -0.000000  0.000000  0.007322  0.013619
  2O   2px       -0.003194  0.001617 -0.000000  0.000000  0.009350  0.020126
  2O   2py        0.000000  0.000000 -0.001810 -0.159065  0.000000 -0.000000
  3O   1s        -0.026704 -0.082304 -0.000000  0.000000  0.091102 -0.011265
  3O   2s         0.064596  0.195831 -0.000000  0.000000 -0.198880  0.025048
  3O   1pz       -0.030848 -0.102238 -0.000000  0.000000  0.541905 -0.061525
  3O   1px       -0.004246 -0.001450  0.000000  0.000000 -0.062431 -0.541009
  3O   1py        0.000000 -0.000000 -0.410848  0.007214 -0.000000 -0.000000
  3O   3s         0.080452  0.265225  0.000000 -0.000000 -0.420168  0.058029
  3O   2pz       -0.012658 -0.034402  0.000000 -0.000000  0.193041 -0.019421
  3O   2px       -0.000582  0.003277  0.000000  0.000000 -0.035042 -0.296946
  3O   2py        0.000000 -0.000000 -0.179658  0.003078  0.000000 -0.000000
  4H   1s        -0.174973  0.058086 -0.001996 -0.192289  0.000544  0.001349
  4H   2s        -0.042247  0.012622 -0.001648 -0.077822 -0.001311 -0.001324
  5H   1s        -0.059848 -0.185572 -0.155792  0.002160 -0.084156  0.014662
  5H   2s        -0.017531 -0.049619 -0.048918 -0.000797 -0.059046  0.010811
  6H   1s        -0.174973  0.058086  0.001996  0.192289  0.000544  0.001349
  6H   2s        -0.042247  0.012622  0.001648  0.077822 -0.001311 -0.001324
  7H   1s        -0.059848 -0.185572  0.155792 -0.002160 -0.084156  0.014662
  7H   2s        -0.017531 -0.049619  0.048918  0.000797 -0.059046  0.010811
                     12        13        14        15        16        17   
                  -0.70853  -0.65017  -0.56496  -0.56071  -0.30620  -0.25763
                   1.00000   1.00000   1.00000   1.00000   0.00000   0.00000
                  --------  --------  --------  --------  --------  --------
  0C   1s         0.018060 -0.000922 -0.000000  0.000000  0.001542  0.004587
  0C   2s        -0.077969  0.009780  0.000000  0.000000 -0.022905 -0.023055
  0C   1pz        0.391974  0.009316  0.000000  0.000000 -0.010948 -0.012775
  0C   1px       -0.004819  0.328784 -0.000000  0.000000 -0.513099  0.183856
  0C   1py        0.000000  0.000000  0.214011 -0.046027 -0.000000  0.000000
  0C   3s         0.014927 -0.018330  0.000000 -0.000000  0.045627 -0.017029
  0C   2pz        0.085555  0.007972 -0.000000 -0.000000 -0.008456 -0.001947
  0C   2px       -0.004796  0.187014 -0.000000  0.000000 -0.512569  0.146773
  0C   2py       -0.000000 -0.000000  0.024285 -0.009984 -0.000000  0.000000
  1C   1s         0.000344 -0.001426  0.000000 -0.000000  0.003703 -0.000529
  1C   2s        -0.000517  0.008356  0.000000 -0.000000 -0.027685 -0.005829
  1C   1pz       -0.006192  0.010288  0.000000 -0.000000 -0.014341 -0.003367
  1C   1px       -0.015884  0.031728  0.000000  0.000000  0.108567  0.516457
  1C   1py       -0.000000 -0.000000  0.044023  0.226533  0.000000 -0.000000
  1C   3s         0.002154 -0.019609 -0.000000  0.000000  0.023716  0.044511
  1C   2pz       -0.004617  0.016715  0.000000 -0.000000 -0.009001 -0.004697
  1C   2px       -0.004428  0.002517  0.000000  0.000000  0.168709  0.601574
  1C   2py        0.000000  0.000000  0.013158  0.085226 -0.000000 -0.000000
  2O   1s        -0.082808 -0.002962 -0.000000 -0.000000  0.000313  0.000670
  2O   2s         0.186229  0.007641  0.000000  0.000000  0.002839 -0.002868
  2O   1pz       -0.521730 -0.008617 -0.000000  0.000000 -0.006115 -0.001355
  2O   1px       -0.011125  0.553670 -0.000000  0.000000  0.409148 -0.110774
  2O   1py        0.000000 -0.000000 -0.597696  0.119787  0.000000  0.000000
  2O   3s         0.324298  0.015454 -0.000000 -0.000000 -0.022094  0.000161
  2O   2pz       -0.244086 -0.000963 -0.000000  0.000000 -0.012871  0.001697
  2O   2px       -0.006827  0.336808 -0.000000  0.000000  0.379782 -0.097798
  2O   2py        0.000000 -0.000000 -0.394494  0.079542  0.000000 -0.000000
  3O   1s         0.001242 -0.002765 -0.000000  0.000000  0.001003 -0.000052
  3O   2s        -0.002480  0.006002 -0.000000  0.000000 -0.001616  0.003829
  3O   1pz        0.007388 -0.009649  0.000000 -0.000000 -0.002248 -0.002579
[...]
 0 C  py              0.0       0.0       0.0       0.0       7.9       3.9
 1 C  s              28.9       4.7      13.2       0.1       0.0       0.0
 1 C  pz              1.6      21.7       0.4       2.7       0.0       0.0
 1 C  px              0.1       0.6       0.3       1.2       0.0       0.0
 1 C  py              0.0       0.0       0.0       0.0       3.8      12.5
 2 O  s               6.5       0.7       3.5       0.2       0.0       0.0
 2 O  pz             31.0       2.7      39.5       3.4       0.0       0.0
 2 O  px              1.9       1.0       3.5      47.0       0.0       0.0
 2 O  py              0.0       0.0       0.0       0.0      57.9      19.7
 3 O  s               0.2       3.3       0.4       0.2       0.0       0.0
 3 O  pz              4.7      51.6       1.7       6.4       0.0       0.0
 3 O  px              2.2      12.8       0.3      36.4       0.0       0.0
 3 O  py              0.0       0.0       0.0       0.0      22.1      52.6
 4 H  s               1.0       0.2       4.8       0.0       3.4       1.9
 5 H  s               7.0       0.1       1.8       0.0       0.8       3.7
 6 H  s               1.0       0.2       4.8       0.0       3.4       1.9
 7 H  s               7.0       0.1       1.8       0.0       0.8       3.7

                     42        43   
                   1.36190   1.44336
                   0.00000   0.00000
                  --------  --------
 0 C  s               3.9       1.4
 0 C  px              0.0       0.1
 1 C  s               0.3       5.2
 1 C  pz              0.1       0.5
 2 O  s              73.6       9.5
 2 O  pz              9.0       1.1
 3 O  s              11.3      77.4
 3 O  pz              0.6       3.4
 4 H  s               0.5       0.1
 5 H  s               0.0       0.5
 6 H  s               0.5       0.1
 7 H  s               0.0       0.5


                      *****************************
                      * MAYER POPULATION ANALYSIS *
                      *****************************

  NA   - Mulliken gross atomic population
  ZA   - Total nuclear charge
  QA   - Mulliken gross atomic charge
  VA   - Mayer's total valence
  BVA  - Mayer's bonded valence
  FA   - Mayer's free valence

  ATOM       NA         ZA         QA         VA         BVA        FA
  0 C      5.9385     6.0000     0.0615     3.4748     3.4707     0.0041
  1 C      5.9938     6.0000     0.0062     3.5497     3.5480     0.0017
  2 O      8.1625     8.0000    -0.1625     2.3529     2.1980     0.1550
  3 O      8.0188     8.0000    -0.0188     2.4087     2.2705     0.1382
  4 H      0.7199     1.0000     0.2801     0.8811     0.8787     0.0024
  5 H      0.7232     1.0000     0.2768     0.8830     0.8726     0.0104
  6 H      0.7199     1.0000     0.2801     0.8811     0.8787     0.0024
  7 H      0.7232     1.0000     0.2768     0.8830     0.8726     0.0104

  Mayer bond orders larger than 0.1
B(  0-C ,  2-O ) :   1.7924 B(  0-C ,  4-H ) :   0.8320 B(  0-C ,  6-H ) :   0.8320 
B(  1-C ,  3-O ) :   1.9406 B(  1-C ,  5-H ) :   0.7887 B(  1-C ,  7-H ) :   0.7887 
B(  2-O ,  3-O ) :   0.2456 

-------
TIMINGS
-------

Total SCF time: 0 days 0 hours 0 min 6 sec 

Total time                  ....       6.399 sec
Sum of individual times     ....       6.384 sec  ( 99.8%)

Fock matrix formation       ....       5.835 sec  ( 91.2%)
  XC integration            ....       1.524 sec  ( 26.1% of F)
    Basis function eval.    ....       0.674 sec  ( 44.2% of XC)
    Density eval.           ....       0.272 sec  ( 17.8% of XC)
    XC-Functional eval.     ....       0.282 sec  ( 18.5% of XC)
    XC-Potential eval.      ....       0.243 sec  ( 16.0% of XC)
Diagonalization             ....       0.020 sec  (  0.3%)
Density matrix formation    ....       0.001 sec  (  0.0%)
Population analysis         ....       0.006 sec  (  0.1%)
Initial guess               ....       0.146 sec  (  2.3%)
Orbital Transformation      ....       0.000 sec  (  0.0%)
Orbital Orthonormalization  ....       0.000 sec  (  0.0%)
DIIS solution               ....       0.005 sec  (  0.1%)
Grid generation             ....       0.371 sec  (  5.8%)
------------------------------------------------------------------------------
                        ORCA TD-DFT/TDA CALCULATION
------------------------------------------------------------------------------

Input orbitals are from        ... orca.gbw
CI-vector output               ... orca.cis
Tamm-Dancoff approximation     ... operative
CIS-Integral strategy          ... AO-integrals
Integral handling              ... AO integral Direct
Max. core memory used          ... 4000 MB
Reference state                ... UHF
Number of operators            ... 2
Orbital ranges used for CIS calculation:
 Operator 0:  Orbitals   4... 15  to  16... 43
 Operator 1:  Orbitals   4... 14  to  15... 43
XAS localization array:
 Operator 0:  Orbitals  -1... -1
 Operator 1:  Orbitals  -1... -1
-------------------
XC-INTEGRATION GRID
-------------------

General Integration Accuracy     IntAcc      ...  3.670
Radial Grid Type                 RadialGrid  ... Gauss-Chebyshev
Angular Grid (max. acc.)         AngularGrid ... Lebedev-50
Angular grid pruning method      GridPruning ... 3 (G Style)
Weight generation scheme         WeightScheme... Becke
Basis function cutoff            BFCut       ...    1.0000e-10
Integration weight cutoff        WCut        ...    1.0000e-14
Grids for H and He will be reduced by one unit

# of grid points (after initial pruning)     ...   4616 (   0.0 sec)
# of grid points (after weights+screening)   ...   4474 (   0.0 sec)
nearest neighbour list constructed           ...    0.0 sec
Grid point re-assignment to atoms done       ...    0.0 sec
Grid point division into batches done        ...    0.0 sec
Reduced shell lists constructed in    0.0 sec

Total number of grid points                  ...     4474
Total number of batches                      ...       74
Average number of points per batch           ...       60
Average number of grid points per atom       ...      559
Average number of shells per batch           ...    21.32 (76.14%)
Average number of basis functions per batch  ...    34.95 (79.42%)
Average number of large shells per batch     ...    17.87 (83.80%)
Average number of large basis fcns per batch ...    29.17 (83.48%)
Maximum spatial batch extension              ...  18.79, 18.51, 18.27 au
Average spatial batch extension              ...   6.24,  5.09,  5.14 au


---------------
TD-DFT XC SETUP
---------------

DFT calculation                         ... on
Name of the grid file                   ... orca.grid_cis.tmp
Exchange functional (SCF)               ... PBE
Exchange functional (TD-DFT)            ... PBE
   PBE kappa parameter  XKappa (SCF)    ...  0.804000
   PBE kappa parameter  XKappa (TD-DFT) ...  0.804000
   PBE mue parameter   XMuePBE (SCF)    ...  0.219520
   PBE mue parameter   XMuePBE (TD-DFT) ...  0.219520
Correlation functional (SCF)            ... PBE
Correlation functional (TD-DFT)         ... PBE
   PBE beta parameter CBetaPBE (SCF)    ...  0.066725
   PBE beta parameter CBetaPBE (TD-DFT) ...  0.066725
 LDA part of GGA corr.  LDAOpt (SCF)    ... PW91-LDA
 LDA part of GGA corr.  LDAOpt (TD-DFT) ... PW91-LDA
Hybrid DFT                              ... on
   Exchange mixing (SCF)                ...  0.250
   Exchange mixing (TD-DFT)             ...  0.250
   GGA exch. scaling(SCF)               ...  0.750
   GGA exch. scaling (TD-DFT)           ...  0.750
   GGA corr. scaling (SCF)              ...  1.000
   GGA corr. scaling (TD-DFT)           ...  1.000

Building densities             ... done
Calculating rho(r) on the grid ... done
Building xc-kernel on the grid ... done
                    *** TD-DFT CALCULATION INITIALIZED ***


------------------------
DAVIDSON-DIAGONALIZATION
------------------------

Dimension of the eigenvalue problem            ...    655
Number of roots to be determined               ...     10
Maximum size of the expansion space            ...    100
Convergence tolerance for the residual         ...    1.000e-06
Convergence tolerance for the energies         ...    1.000e-06
Orthogonality tolerance                        ...    1.000e-14
Level Shift                                    ...    0.000e+00
Constructing the preconditioner                ... o.k.
Building the initial guess                     ... o.k.
Number of trial vectors determined             ...    100


                       ****Iteration    0****

   Memory handling for direct AO based CIS:
   Memory per vector needed      ...     1 MB
   Memory needed                 ...     2 MB
   Memory available              ...  4000 MB
   Number of vectors per batch   ...  4000
   Number of batches             ...     1
   Time for densities:     0.002
   Using LibInt in JK Direct
   Time for J+K (Direct):     1.131
   Time for XC-Integration:     0.358
   Time for Sigma-Completion:     0.004
   Size of expansion space: 30
   Lowest Energy          :     0.097736681236
   Maximum Energy change  :     0.216926034850 (vector 9)
   Maximum residual norm  :     0.037611470539

                       ****Iteration    1****
   Time for densities:     0.001
   Using LibInt in JK Direct
   Time for J+K (Direct):     0.408
   Time for XC-Integration:     0.131
   Time for Sigma-Completion:     0.001
   Size of expansion space: 40
   Lowest Energy          :     0.079049287832
   Maximum Energy change  :     0.018687393404 (vector 0)
   Maximum residual norm  :     0.000902888771

                       ****Iteration    2****
   Time for densities:     0.001
   Using LibInt in JK Direct
   Time for J+K (Direct):     0.407
   Time for XC-Integration:     0.131
   Time for Sigma-Completion:     0.001
   Size of expansion space: 50
   Lowest Energy          :     0.078283164277
   Maximum Energy change  :     0.000766123555 (vector 0)
   Maximum residual norm  :     0.000057202900

                       ****Iteration    3****
   Time for densities:     0.001
   Using LibInt in JK Direct
   Time for J+K (Direct):     0.409
   Time for XC-Integration:     0.132
   Time for Sigma-Completion:     0.001
   Size of expansion space: 60
   Lowest Energy          :     0.078231282687
   Maximum Energy change  :     0.000051881590 (vector 0)
   Maximum residual norm  :     0.000001282710

                       ****Iteration    4****
   Time for densities:     0.001
   Using LibInt in JK Direct
   Time for J+K (Direct):     0.407
   Time for XC-Integration:     0.132
   Time for Sigma-Completion:     0.001
   Size of expansion space: 70
   Lowest Energy          :     0.078229352690
   Maximum Energy change  :     0.000001929997 (vector 0)
   Maximum residual norm  :     0.000000047894

      *** CONVERGENCE OF RESIDUAL NORM REACHED ***

Storing the converged CI vectors               ... orca.cis2

                 *** DAVIDSON DONE ***

Total time for solving the CIS problem:     3.841sec

-------------------------
TD-DFT/TDA EXCITED STATES
-------------------------

the weight of the individual excitations are printed if larger than 0.01

STATE  1:  E=   0.078229 au      2.129 eV    17169.4 cm**-1
    13a ->  16a  :     0.020917 (c= -0.14462606)
    13b ->  16b  :     0.011626 (c= -0.10782564)
    14b ->  15b  :     0.934694 (c= -0.96679550)

STATE  2:  E=   0.097109 au      2.642 eV    21313.0 cm**-1
    14a ->  16a  :     0.033678 (c=  0.18351699)
    13b ->  15b  :     0.019495 (c=  0.13962292)
    14b ->  16b  :     0.941206 (c= -0.97015785)

STATE  3:  E=   0.114269 au      3.109 eV    25079.2 cm**-1
    14a ->  16a  :     0.029638 (c=  0.17215763)
    13b ->  15b  :     0.934549 (c=  0.96672091)
    14b ->  16b  :     0.030773 (c=  0.17542337)

STATE  4:  E=   0.151642 au      4.126 eV    33281.6 cm**-1
    14a ->  16a  :     0.111829 (c=  0.33440872)
    15a ->  16a  :     0.030083 (c= -0.17344532)
    15a ->  17a  :     0.035752 (c= -0.18908289)
    14b ->  17b  :     0.793378 (c=  0.89071773)

STATE  5:  E=   0.157630 au      4.289 eV    34595.7 cm**-1
    14a ->  16a  :     0.753202 (c= -0.86787209)
    14a ->  17a  :     0.015893 (c=  0.12606586)
    15a ->  16a  :     0.022176 (c=  0.14891706)
    15a ->  17a  :     0.010598 (c= -0.10294750)
    13b ->  15b  :     0.035355 (c=  0.18802811)
    14b ->  16b  :     0.018212 (c= -0.13495205)
    14b ->  17b  :     0.143019 (c=  0.37817889)

STATE  6:  E=   0.175656 au      4.780 eV    38551.9 cm**-1
    12b ->  15b  :     0.995164 (c=  0.99757904)

STATE  7:  E=   0.178221 au      4.850 eV    39114.9 cm**-1
    13a ->  16a  :     0.457676 (c=  0.67651784)
    13a ->  17a  :     0.019941 (c= -0.14121323)
    13b ->  16b  :     0.497311 (c= -0.70520261)
    13b ->  17b  :     0.017753 (c=  0.13323912)

STATE  8:  E=   0.186503 au      5.075 eV    40932.7 cm**-1
    14a ->  16a  :     0.012850 (c= -0.11335623)
    14a ->  17a  :     0.017339 (c= -0.13167881)
    15a ->  16a  :     0.246713 (c= -0.49670184)
    15a ->  17a  :     0.503214 (c= -0.70937580)
    11b ->  15b  :     0.152090 (c=  0.38998654)
    14b ->  17b  :     0.057030 (c= -0.23880862)

STATE  9:  E=   0.205150 au      5.582 eV    45025.2 cm**-1
    15a ->  16a  :     0.102499 (c=  0.32015513)
    15a ->  17a  :     0.062697 (c=  0.25039340)
    11b ->  15b  :     0.818192 (c=  0.90453970)

STATE 10:  E=   0.214268 au      5.831 eV    47026.4 cm**-1
    10b ->  15b  :     0.982155 (c= -0.99103712)
    11b ->  15b  :     0.010676 (c= -0.10332258)


-----------------------------
TD-DFT/TDA-EXCITATION SPECTRA
-----------------------------

Center of mass = (  0.0000,  0.0000, -0.0032)
Calculating the Dipole integrals                  ... done
Transforming integrals                            ... done
Calculating the Linear Momentum integrals         ... done
Transforming integrals                            ... done
Calculating angular momentum integrals            ... done
Transforming integrals                            ... done

-----------------------------------------------------------------------------
         ABSORPTION SPECTRUM VIA TRANSITION ELECTRIC DIPOLE MOMENTS
-----------------------------------------------------------------------------
State   Energy  Wavelength   fosc         T2         TX        TY        TZ  
        (cm-1)    (nm)                  (au**2)     (au)      (au)      (au) 
-----------------------------------------------------------------------------
   1   17169.4    582.4   0.502603117   9.63711   3.09825  -0.00000  -0.19480
   2   21313.0    469.2   0.000001532   0.00002   0.00000   0.00486  -0.00000
   3   25079.2    398.7   0.000000783   0.00001  -0.00000  -0.00321   0.00000
   4   33281.6    300.5   0.000003401   0.00003  -0.00000  -0.00580   0.00000
   5   34595.7    289.1   0.000012748   0.00012   0.00000   0.01101  -0.00000
   6   38551.9    259.4   0.000564957   0.00482   0.00000   0.06946   0.00000
   7   39114.9    255.7   0.001007737   0.00848   0.07605  -0.00000   0.05194
   8   40932.7    244.3   0.000003365   0.00003  -0.00000   0.00520  -0.00000
   9   45025.2    222.1   0.000018106   0.00013  -0.00000  -0.01151  -0.00000
  10   47026.4    212.6   0.000699466   0.00490  -0.00000   0.06998   0.00000

-----------------------------------------------------------------------------
         ABSORPTION SPECTRUM VIA TRANSITION VELOCITY DIPOLE MOMENTS
-----------------------------------------------------------------------------
State   Energy  Wavelength   fosc         P2         PX        PY        PZ  
        (cm-1)    (nm)                  (au**2)     (au)      (au)      (au) 
-----------------------------------------------------------------------------
   1   17169.4    582.4   0.029363072   0.00345   0.04106   0.00000  -0.04195
   2   21313.0    469.2   0.000013611   0.00000  -0.00000   0.00141   0.00000
   3   25079.2    398.7   0.000002996   0.00000   0.00000  -0.00072  -0.00000
   4   33281.6    300.5   0.000006946   0.00000  -0.00000  -0.00126  -0.00000
   5   34595.7    289.1   0.000008252   0.00000   0.00000   0.00140   0.00000
   6   38551.9    259.4   0.011934591   0.00314  -0.00000  -0.05608  -0.00000
   7   39114.9    255.7   0.000010689   0.00000   0.00165   0.00000   0.00036
   8   40932.7    244.3   0.000073158   0.00002   0.00000   0.00452   0.00000
   9   45025.2    222.1   0.000210582   0.00006   0.00000   0.00805   0.00000
  10   47026.4    212.6   0.011006571   0.00354   0.00000  -0.05948  -0.00000

-------------------------------------------------------------------
                             CD SPECTRUM
-------------------------------------------------------------------
State   Energy Wavelength       R         MX        MY        MZ   
        (cm-1)   (nm)       (1e40*cgs)   (au)      (au)      (au)  
-------------------------------------------------------------------
   1   17169.4    582.4      0.00000   0.00000  -0.27344   0.00000
   2   21313.0    469.2      0.00000   0.00298   0.00000  -0.11572
   3   25079.2    398.7      0.00000  -0.00567  -0.00000   0.26795
   4   33281.6    300.5     -0.00000  -0.00256  -0.00000  -0.04319
   5   34595.7    289.1      0.00000  -0.00032   0.00000  -0.46040
   6   38551.9    259.4      0.00000   0.36776   0.00000   0.11298
   7   39114.9    255.7     -0.00000  -0.00000  -0.00955  -0.00000
   8   40932.7    244.3     -0.00000  -0.01535   0.00000   0.50762
   9   45025.2    222.1      0.00000  -0.05584  -0.00000  -0.02226
  10   47026.4    212.6     -0.00000   0.34873  -0.00000  -0.10035

Total run time:        3.986 sec

           *** ORCA-CIS/TD-DFT FINISHED WITHOUT ERROR ***

-----------------------
CIS/TD-DFT TOTAL ENERGY
-----------------------

    E(SCF)  =   -228.248081428 Eh
    DE(CIS) =      0.078229353 Eh (Root  1)
    ----------------------------- ---------
    E(tot)  =   -228.169852075 Eh


-------------------------   --------------------
FINAL SINGLE POINT ENERGY      -228.169852074882
-------------------------   --------------------


                            ***************************************
                            *     ORCA property calculations      *
                            ***************************************

                                    ---------------------
                                    Active property flags
                                    ---------------------
   (+) Dipole Moment


------------------------------------------------------------------------------
                       ORCA ELECTRIC PROPERTIES CALCULATION
------------------------------------------------------------------------------

Dipole Moment Calculation                       ... on
Quadrupole Moment Calculation                   ... off
Polarizability Calculation                      ... off
GBWName                                         ... orca.gbw
Electron density file                           ... orca.scfp.tmp
The origin for moment calculation is the CENTER OF MASS  = ( 0.000000,  0.000000 -0.003249)

-------------
DIPOLE MOMENT
-------------
                                X             Y             Z
Electronic contribution:     -0.25785      -0.00000      -2.02487
Nuclear contribution   :      0.00000       0.00000       4.38230
                        -----------------------------------------
Total Dipole Moment    :     -0.25785      -0.00000       2.35743
                        -----------------------------------------
Magnitude (a.u.)       :      2.37149
Magnitude (Debye)      :      6.02785


Timings for individual modules:

Sum of individual times         ...       10.744 sec (=   0.179 min)
GTO integral calculation        ...        0.265 sec (=   0.004 min)   2.5 %
SCF iterations                  ...        6.478 sec (=   0.108 min)  60.3 %
CIS module                      ...        4.000 sec (=   0.067 min)  37.2 %
                             ****ORCA TERMINATED NORMALLY****
TOTAL RUN TIME: 0 days 0 hours 0 minutes 10 seconds 867 msec
