[Molden Format]
[Title]
 Molden file created by orca_2mkl for BaseName=orca

[Atoms] AU
C    1   6          3.3070207344         0.0000000000         1.1191903028 
C    2   6         -3.3070207344         0.0000000000         1.1191903028 
O    3   8          3.3070207344         0.0000000000        -1.3140588617 
O    4   8         -3.3070207344         0.0000000000        -0.9361136350 
H    5   1          3.3070207344         1.7478077013         2.2123590768 
H    6   1         -3.3070207344         1.7478077013         2.2123590768 
H    7   1          3.3070207344        -1.7478077013         2.2123590768 
H    8   1         -3.3070207344        -1.7478077013         2.2123590768 
[GTO]
  1 0
s   6 1.0 
     3047.5249000000         0.5363343823
      457.3695100000         0.9894506076
      103.9486900000         1.5972822308
       29.2101550000         2.0791870615
        9.2866630000         1.7741742532
        3.1639270000         0.6125798260
s   3 1.0 
        7.8682724000        -0.3995563516
        1.8812885000        -0.1841552393
        0.5442493000         0.5163903794
p   3 1.0 
        7.8682724000         1.2960827175
        1.8812885000         0.9937536282
        0.5442493000         0.4959527138
s   1 1.0 
        0.1687144000         0.1876178721
p   1 1.0 
        0.1687144000         0.1541275509

  2 0
s   6 1.0 
     3047.5249000000         0.5363343823
      457.3695100000         0.9894506076
      103.9486900000         1.5972822308
       29.2101550000         2.0791870615
        9.2866630000         1.7741742532
        3.1639270000         0.6125798260
s   3 1.0 
        7.8682724000        -0.3995563516
        1.8812885000        -0.1841552393
        0.5442493000         0.5163903794
p   3 1.0 
        7.8682724000         1.2960827175
        1.8812885000         0.9937536282
        0.5442493000         0.4959527138
s   1 1.0 
        0.1687144000         0.1876178721
p   1 1.0 
        0.1687144000         0.1541275509

  3 0
s   6 1.0 
     5484.6717000000         0.8317352088
      825.2349500000         1.5308074829
      188.0469600000         2.4771490916
       52.9645000000         3.2562802462
       16.8975700000         2.7928936336
        5.7996353000         0.9549376963
s   3 1.0 
       15.5396160000        -0.6179336976
        3.5999336000        -0.2757210088
        1.0137618000         0.8142076427
p   3 1.0 
       15.5396160000         3.1169455889
        3.5999336000         2.4014372483
        1.0137618000         1.0543605133
s   1 1.0 
        0.2700058000         0.2669561389
p   1 1.0 
        0.2700058000         0.2774319373

  4 0
s   6 1.0 
     5484.6717000000         0.8317352088
      825.2349500000         1.5308074829
      188.0469600000         2.4771490916
       52.9645000000         3.2562802462
       16.8975700000         2.7928936336
        5.7996353000         0.9549376963
s   3 1.0 
       15.5396160000        -0.6179336976
        3.5999336000        -0.2757210088
        1.0137618000         0.8142076427
p   3 1.0 
       15.5396160000         3.1169455889
        3.5999336000         2.4014372483
        1.0137618000         1.0543605133
s   1 1.0 
        0.2700058000         0.2669561389
p   1 1.0 
        0.2700058000         0.2774319373

  5 0
s   3 1.0 
       18.7311370000         0.2149354183
        2.8253937000         0.3645711272
        0.6401217000         0.4150514277
s   1 1.0 
        0.1612778000         0.1813806839

  6 0
s   3 1.0 
       18.7311370000         0.2149354183
        2.8253937000         0.3645711272
        0.6401217000         0.4150514277
s   1 1.0 
        0.1612778000         0.1813806839

  7 0
s   3 1.0 
       18.7311370000         0.2149354183
        2.8253937000         0.3645711272
        0.6401217000         0.4150514277
s   1 1.0 
        0.1612778000         0.1813806839

  8 0
s   3 1.0 
       18.7311370000         0.2149354183
        2.8253937000         0.3645711272
        0.6401217000         0.4150514277
s   1 1.0 
        0.1612778000         0.1813806839

[5D]
[9G]
[MO]
 Sym=     1a
 Ene= -1.95538795675148E+01
 Spin= Alpha
 Occup= 1.000000
  1      -0.000019206842
  2      -0.000276435075
  3       0.000138037660
  4       0.000000000000
  5      -0.000018082712
  6       0.000824581166
  7      -0.000335953494
  8      -0.000000000002
  9      -0.000214395861
 10      -0.000278387253
 11       0.000135395335
 12       0.000053419364
 13      -0.000000000000
 14      -0.000702859852
 15      -0.010868071998
 16      -0.000133548678
 17       0.000000000001
 18       0.006335247295
 19       0.000301137348
 20       0.000094114206
 21       0.000014605551
 22      -0.000000000000
 23       0.000017497374
 24      -0.000452175434
 25       0.000020990058
 26       0.000000000000
 27      -0.000199632052
 28      -0.995097183160
 29      -0.029459380327
 30      -0.000025190424
 31       0.000000000000
 32      -0.003076451540
 33       0.020384180589
 34       0.000042907709
 35      -0.000000000000
 36       0.005876439734
 37      -0.000056355223
 38      -0.000087734009
 39       0.000365501093
 40       0.000044803084
 41      -0.000056355222
 42      -0.000087734012
 43       0.000365501093
 44       0.000044803086
 Sym=     1a
 Ene= -1.95418666496474E+01
 Spin= Alpha
 Occup= 1.000000
  1      -0.000137997752
  2       0.000335353011
  3      -0.000041493588
  4      -0.000000000000
  5       0.000100606443
  6      -0.007493724993
  7       0.000098887959
  8      -0.000000000000
  9       0.004954813289
 10      -0.000009805924
 11      -0.000172418696
 12      -0.000099427943
 13      -0.000000000000
 14      -0.000033810142
 15       0.000701264845
 16       0.000263477361
 17       0.000000000001
 18      -0.000173045205
 19      -0.995160775539
 20      -0.028058297968
 21       0.000030585208
 22      -0.000000000000
 23      -0.002370087666
 24       0.016104832358
 25      -0.000032435582
 26       0.000000000000
 27       0.005113872815
 28      -0.000291190035
 29       0.000077184954
 30       0.000000069047
 31       0.000000000000
 32       0.000008041183
 33      -0.000456334941
 34      -0.000047761654
 35      -0.000000000000
 36      -0.000151316169
 37       0.000338918006
 38      -0.000130606120
 39      -0.000044739912
 40      -0.000076159238
 41       0.000338918006
 42      -0.000130606120
 43      -0.000044739912
 44      -0.000076159237
 Sym=     1a
 Ene= -1.05833526151881E+01
 Spin= Alpha
 Occup= 1.000000
  1       0.016458529555
  2       0.001035123730
  3      -0.000275649692
  4       0.000000000000
  5       0.000051950689
  6      -0.001856644590
  7       0.000644090167
  8      -0.000000000003
  9       0.000219014633
 10      -0.994877294139
 11      -0.034902532006
 12      -0.000142559536
 13      -0.000000000000
 14       0.003288846056
 15       0.015087655005
 16       0.000256561053
 17      -0.000000000001
 18       0.002576860404
 19      -0.000010441853
 20      -0.000193836480
 21       0.000002316425
 22      -0.000000000000
 23      -0.000042850888
 24       0.000824764994
 25      -0.000134938701
 26       0.000000000001
 27       0.000348416208
 28       0.000644471784
 29       0.000042657086
 30       0.000006045984
 31      -0.000000000000
 32       0.000166214048
 33       0.002928910391
 34      -0.000065023616
 35       0.000000000000
 36       0.003730842932
 37       0.000071011282
 38       0.000334960647
 39       0.001062267345
 40      -0.004511736299
 41       0.000071011282
 42       0.000334960642
 43       0.001062267345
 44      -0.004511736299
 Sym=     1a
 Ene= -1.05824873461873E+01
 Spin= Alpha
 Occup= 1.000000
  1      -0.995044152558
  2      -0.032493304113
  3       0.000152630999
  4      -0.000000000001
  5       0.000922139279
  6       0.017430749628
  7      -0.000260721828
  8       0.000000000004
  9       0.002001802168
 10      -0.016405518547
 11      -0.000135282202
 12       0.000291456944
 13      -0.000000000001
 14       0.000184017842
 15      -0.001852224765
 16      -0.000731265792
 17       0.000000000005
 18       0.000485106111
 19       0.000056703447
 20       0.000342800623
 21      -0.000002665001
 22       0.000000000000
 23       0.000498946373
 24      -0.000572826289
 25       0.000052936569
 26      -0.000000000001
 27       0.001198769574
 28      -0.000005439817
 29      -0.000289541974
 30      -0.000002920566
 31       0.000000000000
 32      -0.000037750874
 33       0.001467957744
 34       0.000170911021
 35      -0.000000000001
 36       0.000587474175
 37       0.001024441040
 38      -0.004730726375
 39       0.000125085961
 40       0.000221862045
 41       0.001024441039
 42      -0.004730726367
 43       0.000125085961
 44       0.000221862052
 Sym=     1a
 Ene= -1.48902233057801E+00
 Spin= Alpha
 Occup= 1.000000
  1       0.000336490620
  2       0.000242400653
  3      -0.000145601977
  4       0.000000000000
  5       0.000121366027
  6      -0.002825781036
  7       0.001005735430
  8      -0.000000000020
  9       0.001928460994
 10       0.127221782692
 11      -0.246771555387
 12      -0.001539424757
 13       0.000000000007
 14       0.230599068552
 15      -0.037150282146
 16      -0.001043696120
 17       0.000000000014
 18      -0.046122330493
 19       0.000358492401
 20      -0.001053501005
 21       0.000022394092
 22      -0.000000000001
 23      -0.000354582322
 24       0.001271552157
 25       0.000550471856
 26       0.000000000013
 27       0.000774503366
 28       0.197067311058
 29      -0.445061940148
 30      -0.001822228167
 31       0.000000000004
 32      -0.222908967644
 33      -0.338036953097
 34      -0.001688570852
 35       0.000000000006
 36      -0.042879115932
 37      -0.000026784843
 38      -0.000025495954
 39      -0.022951985528
 40       0.011694883291
 41      -0.000026784829
 42      -0.000025496003
 43      -0.022951985533
 44       0.011694883327
 Sym=     1a
 Ene= -1.34717854062617E+00
 Spin= Alpha
 Occup= 1.000000
  1      -0.101750624490
  2       0.208631019886
  3      -0.001803456193
  4      -0.000000000001
  5      -0.169186076536
  6       0.036533490012
  7      -0.001607969765
  8      -0.000000000076
  9       0.044986780875
 10       0.000240095676
 11      -0.001600154867
 12      -0.000195764074
 13      -0.000000000069
 14       0.000892606447
 15       0.005056399468
 16       0.001635139749
 17       0.000000000591
 18      -0.002881839137
 19      -0.201047887100
 20       0.458100298078
 21      -0.002539989564
 22       0.000000000006
 23       0.171684846515
 24       0.437091567991
 25      -0.002751869340
 26       0.000000000022
 27       0.082816825139
 28       0.000673101351
 29      -0.001108655711
 30       0.000202665952
 31       0.000000000016
 32      -0.000765454135
 33      -0.004966336907
 34       0.000813647285
 35      -0.000000000164
 36      -0.001610446497
 37       0.025975217757
 38      -0.008677050287
 39      -0.000152009490
 40      -0.000112438602
 41       0.025975217762
 42      -0.008677050422
 43      -0.000152009540
 44      -0.000112437556
 Sym=     1a
 Ene= -9.12658009847267E-01
 Spin= Alpha
 Occup= 1.000000
  1       0.164268764200
  2      -0.357742381201
  3       0.006611481867
  4       0.000000000062
  5      -0.168279667362
  6      -0.345456156601
  7       0.011533424686
  8      -0.000000000153
  9      -0.057335809399
 10       0.049218127753
 11      -0.108716049232
 12      -0.006457678146
 13       0.000000000157
 14      -0.070009485879
 15      -0.103206160483
 16      -0.004038904496
 17      -0.000000000727
 18      -0.022695960892
 19      -0.083353393263
 20       0.197991535701
 21       0.001099824633
 22       0.000000000027
 23      -0.102714453495
 24       0.255676273585
 25      -0.003193717332
 26       0.000000000067
 27      -0.030930651454
 28      -0.026703930475
 29       0.064596126486
 30      -0.004246356290
 31       0.000000000040
 32      -0.030848380741
 33       0.080451974586
 34      -0.000582399463
 35       0.000000000249
 36      -0.012657908329
 37      -0.174973166804
 38      -0.042247435042
 39      -0.059848373481
 40      -0.017530718925
 41      -0.174973166780
 42      -0.042247435423
 43      -0.059848373496
 44      -0.017530720258
 Sym=     1a
 Ene= -9.07078628737953E-01
 Spin= Alpha
 Occup= 1.000000
  1      -0.054562106028
  2       0.118038335597
  3       0.001472670338
  4       0.000000000148
  5       0.054803185789
  6       0.118957149931
  7      -0.003854998397
  8      -0.000000000817
  9       0.016741813078
 10       0.152877216399
 11      -0.337848729236
 12      -0.004367997246
 13      -0.000000000154
 14      -0.211539816708
 15      -0.336549373782
 16      -0.010660699937
 17       0.000000000740
 18      -0.061920701134
 19       0.027302245180
 20      -0.064229817154
 21       0.001327865276
 22       0.000000000008
 23       0.035410819379
 24      -0.087224470746
 25       0.001617492842
 26       0.000000000206
 27       0.009159920990
 28      -0.082303565839
 29       0.195830960683
 30      -0.001449785608
 31      -0.000000000015
 32      -0.102238096882
 33       0.265225372741
 34       0.003277046354
 35      -0.000000000191
 36      -0.034401503851
 37       0.058086208269
 38       0.012622495937
 39      -0.185571504206
 40      -0.049618722014
 41       0.058086208302
 42       0.012622494205
 43      -0.185571504213
 44      -0.049618720626
 Sym=     1a
 Ene= -8.32205096549269E-01
 Spin= Alpha
 Occup= 1.000000
  1       0.000000000041
  2      -0.000000000224
  3       0.000000000018
  4      -0.004694468939
  5      -0.000000000036
  6       0.000000000196
  7      -0.000000000024
  8      -0.002393491949
  9      -0.000000000007
 10      -0.000000000004
 11       0.000000000049
 12       0.000000000024
 13      -0.437983114302
 14       0.000000000083
 15      -0.000000000486
 16      -0.000000000010
 17      -0.170472595637
 18       0.000000000149
 19      -0.000000000016
 20       0.000000000032
 21      -0.000000000011
 22      -0.003193382881
 23      -0.000000000066
 24       0.000000000010
 25      -0.000000000023
 26      -0.001809663292
 27      -0.000000000064
 28      -0.000000000004
 29      -0.000000000079
 30       0.000000000005
 31      -0.410847883130
 32      -0.000000000031
 33       0.000000000399
 34       0.000000000018
 35      -0.179657599915
 36       0.000000000158
 37      -0.001996206413
 38      -0.001648186431
 39      -0.155792081111
 40      -0.048918356289
 41       0.001996206262
 42       0.001648186318
 43       0.155792081168
 44       0.048918356519
 Sym=     1a
 Ene= -7.59665166261601E-01
 Spin= Alpha
 Occup= 1.000000
  1       0.000000000022
  2       0.000000000025
  3      -0.000000000013
  4      -0.445619548533
  5       0.000000000049
  6      -0.000000000416
  7       0.000000000032
  8      -0.200100728304
  9       0.000000000022
 10       0.000000000012
 11      -0.000000000198
 12       0.000000000231
 13       0.006532091884
 14      -0.000000000418
 15       0.000000001529
 16       0.000000000140
 17       0.001897411659
 18      -0.000000000438
 19      -0.000000000012
 20      -0.000000000022
 21       0.000000000038
 22      -0.331875983384
 23      -0.000000000041
 24       0.000000000215
 25       0.000000000000
 26      -0.159064864521
 27       0.000000000092
 28       0.000000000060
 29       0.000000000103
 30       0.000000000313
 31       0.007213853450
 32       0.000000000312
 33      -0.000000001351
 34       0.000000000166
 35       0.003078163308
 36      -0.000000000379
 37      -0.192288971395
 38      -0.077822296805
 39       0.002160030753
 40      -0.000796903831
 41       0.192288971419
 42       0.077822297081
 43      -0.002160031054
 44       0.000796903062
 Sym=     1a
 Ene= -7.53090847445377E-01
 Spin= Alpha
 Occup= 1.000000
  1      -0.001485214644
  2       0.007201865633
  3       0.006865806463
  4       0.000000000185
  5      -0.005432925176
  6      -0.005579274894
  7       0.007831308402
  8       0.000000000617
  9       0.004311303354
 10      -0.019618260657
 11       0.101575485044
 12      -0.041863055362
 13      -0.000000000009
 14      -0.373219890146
 15      -0.025042715890
 16      -0.018825203426
 17      -0.000000000144
 18      -0.054023945462
 19       0.001183955387
 20      -0.002479938199
 21       0.011037338849
 22       0.000000000222
 23       0.009547387290
 24      -0.000995332213
 25       0.009349708227
 26       0.000000000001
 27       0.007321937464
 28       0.091101586480
 29      -0.198879724571
 30      -0.062430961477
 31      -0.000000000044
 32       0.541904931706
 33      -0.420168419165
 34      -0.035041598889
 35       0.000000000020
 36       0.193040969731
 37       0.000543984251
 38      -0.001311406438
 39      -0.084156094725
 40      -0.059045784534
 41       0.000543984082
 42      -0.001311405638
 43      -0.084156094709
 44      -0.059045784723
 Sym=     1a
 Ene= -7.38487065376655E-01
 Spin= Alpha
 Occup= 1.000000
  1      -0.003272492993
  2       0.015033682907
  3       0.019694756526
  4      -0.000000000287
  5      -0.011589061008
  6      -0.010081958055
  7       0.018077409327
  8      -0.000000000402
  9       0.005608226284
 10       0.000249565568
 11      -0.000686690608
 12      -0.374121665374
 13      -0.000000000004
 14       0.046385539213
 15      -0.013651759752
 16      -0.146724852621
 17       0.000000000141
 18       0.013104728827
 19       0.002491659193
 20      -0.005114676405
 21       0.029164534845
 22      -0.000000000268
 23       0.021209854422
 24      -0.004578347161
 25       0.020125841427
 26      -0.000000000063
 27       0.013618899981
 28      -0.011264847608
 29       0.025047965874
 30      -0.541009447486
 31      -0.000000000031
 32      -0.061525035124
 33       0.058029162526
 34      -0.296946210867
 35      -0.000000000057
 36      -0.019420976270
 37       0.001349273352
 38      -0.001323555803
 39       0.014661644399
 40       0.010811284603
 41       0.001349273621
 42      -0.001323556234
 43       0.014661644362
 44       0.010811284853
 Sym=     1a
 Ene= -7.08533773726859E-01
 Spin= Alpha
 Occup= 1.000000
  1       0.018060465779
  2      -0.077969343388
  3      -0.004818820063
  4       0.000000000002
  5       0.391974116276
  6       0.014927402165
  7      -0.004796060945
  8      -0.000000000031
  9       0.085554771595
 10       0.000343904337
 11      -0.000516787853
 12      -0.015883840213
 13      -0.000000000000
 14      -0.006191684902
 15       0.002154004995
 16      -0.004428464063
 17       0.000000000195
 18      -0.004617189778
 19      -0.082808390056
 20       0.186228706227
 21      -0.011125024929
 22       0.000000000085
 23      -0.521730174089
 24       0.324298087472
 25      -0.006827486977
 26       0.000000000070
 27      -0.244085726902
 28       0.001241916283
 29      -0.002480129542
 30      -0.023424426642
 31       0.000000000050
 32       0.007387768201
 33      -0.009434614828
 34      -0.011021521443
 35      -0.000000000023
 36       0.000226208996
 37       0.093685598426
 38       0.064495069323
 39      -0.002174262177
 40       0.000167340969
 41       0.093685598426
 42       0.064495069329
 43      -0.002174262199
 44       0.000167341318
 Sym=     1a
 Ene= -6.50165352044240E-01
 Spin= Alpha
 Occup= 1.000000
  1      -0.000921939464
  2       0.009780113682
  3       0.328783838068
  4       0.000000000088
  5       0.009315932083
  6      -0.018330039341
  7       0.187013907499
  8      -0.000000000113
  9       0.007972305549
 10      -0.001425595897
 11       0.008356250065
 12       0.031728039345
 13      -0.000000000064
 14       0.010288065136
 15      -0.019609419822
 16       0.002516773326
 17       0.000000000373
 18       0.016714754743
 19      -0.002961521355
 20       0.007640860304
 21       0.553670141607
 22      -0.000000000147
 23      -0.008616561843
 24       0.015453928614
 25       0.336808395002
 26      -0.000000000061
 27      -0.000963081068
 28      -0.002765054155
 29       0.006002273398
 30       0.049992125205
 31       0.000000000035
 32      -0.009648666125
 33       0.026417879660
 34       0.023317798359
 35      -0.000000000078
 36       0.003429786944
 37       0.006100283731
 38       0.005283114548
 39       0.006056387712
 40       0.001243512866
 41       0.006100283633
 42       0.005283114193
 43       0.006056387777
 44       0.001243513483
 Sym=     1a
 Ene= -5.64956268109391E-01
 Spin= Alpha
 Occup= 1.000000
  1      -0.000000000005
  2       0.000000000113
  3      -0.000000000142
  4       0.214011317067
  5       0.000000000034
  6       0.000000000027
  7      -0.000000000146
  8       0.024284965898
  9      -0.000000000123
 10       0.000000000007
 11       0.000000000080
 12       0.000000000050
 13       0.044023206300
 14       0.000000000112
 15      -0.000000001565
 16       0.000000000022
 17       0.013157898811
 18       0.000000000389
 19      -0.000000000012
 20       0.000000000100
 21      -0.000000000090
 22      -0.597695524732
 23      -0.000000000060
 24      -0.000000000145
 25      -0.000000000023
 26      -0.394494372395
 27      -0.000000000137
 28      -0.000000000006
 29      -0.000000000241
 30       0.000000000027
 31      -0.110088541881
 32       0.000000000070
 33       0.000000001125
 34      -0.000000000040
 35      -0.077108714152
 36       0.000000000548
 37       0.189361971779
 38       0.195769891410
 39       0.046973397440
 40       0.049106339370
 41      -0.189361971730
 42      -0.195769891411
 43      -0.046973397353
 44      -0.049106338617
 Sym=     1a
 Ene= -5.60707941475090E-01
 Spin= Alpha
 Occup= 1.000000
  1       0.000000000049
  2       0.000000000596
  3       0.000000000041
  4      -0.046026860253
  5       0.000000000108
  6      -0.000000002254
  7       0.000000000055
  8      -0.009983713244
  9      -0.000000000860
 10      -0.000000000022
 11      -0.000000000213
 12       0.000000000005
 13       0.226532541508
 14      -0.000000000147
 15       0.000000002236
 16       0.000000000048
 17       0.085226014974
 18      -0.000000000284
 19      -0.000000000010
 20       0.000000000112
 21       0.000000000094
 22       0.119786821574
 23       0.000000000031
 24      -0.000000000125
 25       0.000000000033
 26       0.079542275329
 27       0.000000000072
 28       0.000000000019
 29       0.000000000200
 30       0.000000000026
 31      -0.550306350157
 32      -0.000000000035
 33      -0.000000001245
 34      -0.000000000013
 35      -0.386640900680
 36      -0.000000000597
 37      -0.039571100120
 38      -0.035189770665
 39       0.238373871708
 40       0.227557382233
 41       0.039571100318
 42       0.035189773097
 43      -0.238373871818
 44      -0.227557383641
 Sym=     1a
 Ene= -3.06197823816379E-01
 Spin= Alpha
 Occup= 0.000000
  1       0.001541850276
  2      -0.022905155601
  3      -0.513099112187
  4      -0.000000000004
  5      -0.010948146016
  6       0.045627183031
  7      -0.512569460242
  8      -0.000000000244
  9      -0.008455507849
 10       0.003703365479
 11      -0.027685431025
 12       0.108567255819
 13       0.000000000007
 14      -0.014340518767
 15       0.023716007629
 16       0.168708795668
 17      -0.000000000838
 18      -0.009001042875
 19       0.000313473685
 20       0.002838519679
 21       0.409148162601
 22       0.000000000092
 23      -0.006114515719
 24      -0.022094126208
 25       0.379782446617
 26       0.000000000123
 27      -0.012871181902
 28       0.001003375468
 29      -0.001616326841
 30      -0.125305491374
 31       0.000000000021
 32      -0.002247547094
 33      -0.019149219911
 34      -0.136579200874
 35       0.000000000279
 36      -0.004780993711
 37      -0.012157408973
 38      -0.005534252974
 39      -0.014635531700
 40       0.008306455894
 41      -0.012157408949
 42      -0.005534253343
 43      -0.014635531736
 44       0.008306454641
 Sym=     1a
 Ene= -2.57629756397407E-01
 Spin= Alpha
 Occup= 0.000000
  1       0.004587399659
  2      -0.023055458617
  3       0.183856316590
  4       0.000000000103
  5      -0.012774909197
  6      -0.017028777451
  7       0.146772672616
  8       0.000000000461
  9      -0.001947073958
 10      -0.000528739967
 11      -0.005829478098
 12       0.516456817298
 13      -0.000000000047
 14      -0.003367103106
 15       0.044511400308
 16       0.601573724071
 17      -0.000000000172
 18      -0.004697284472
 19       0.000670093285
 20      -0.002867832869
 21      -0.110774085725
 22       0.000000000003
 23      -0.001355386294
 24       0.000160898554
 25      -0.097797818999
 26      -0.000000000123
 27       0.001697196749
 28      -0.000051683336
 29       0.003829369478
 30      -0.433746992060
 31       0.000000000041
 32      -0.002578576541
 33      -0.021393066973
 34      -0.471092212544
 35       0.000000000042
 36      -0.010187348051
 37      -0.011268510464
 38       0.021942380008
 39      -0.004349909135
 40      -0.012664631334
 41      -0.011268510539
 42       0.021942381047
 43      -0.004349909133
 44      -0.012664631728
 Sym=     1a
 Ene= -9.86128792399832E-02
 Spin= Alpha
 Occup= 0.000000
  1       0.077758524272
  2      -0.153504470785
  3       0.028648912773
  4      -0.000000002589
  5      -0.113797773723
  6      -1.069275174361
  7      -0.015762703903
  8      -0.000000012079
  9      -0.290356004258
 10       0.101177506779
 11      -0.193158545355
 12      -0.023471019753
 13      -0.000000001551
 14      -0.218506380501
 15      -1.444494292085
 16       0.011542984074
 17      -0.000000005046
 18      -0.551608193813
 19      -0.006787939442
 20       0.017853383356
 21      -0.004700693434
 22       0.000000001000
 23       0.069219844690
 24       0.048077904199
 25       0.001318276912
 26       0.000000002735
 27       0.076838470771
 28      -0.001949602140
 29       0.012692991248
 30       0.007931732613
 31       0.000000000710
 32       0.054968157191
 33      -0.060984259869
 34       0.001240740515
 35       0.000000001414
 36       0.041864757047
 37       0.061152847357
 38       0.757377775484
 39       0.092971286425
 40       1.099389357058
 41       0.061152846890
 42       0.757377750036
 43       0.092971286577
 44       1.099389345768
 Sym=     1a
 Ene= -7.77895304879948E-02
 Spin= Alpha
 Occup= 0.000000
  1      -0.115852747179
  2       0.216591170046
  3       0.020249184922
  4      -0.000000001200
  5       0.144610058098
  6       1.619637411726
  7      -0.001454542034
  8      -0.000000006422
  9       0.322109339729
 10       0.072160066659
 11      -0.141215439162
 12       0.020069148500
 13       0.000000010739
 14      -0.156675284900
 15      -1.001337345322
 16      -0.003124858506
 17       0.000000041903
 18      -0.445661946815
 19       0.016014826072
 20      -0.037061448807
 21      -0.003444503121
 22       0.000000000609
 23      -0.116997507156
 24      -0.166765387225
 25      -0.003005727733
 26       0.000000001403
 27      -0.161948332790
 28       0.000775223853
 29       0.004165217545
 30      -0.012567227343
 31      -0.000000004492
 32       0.035445853939
 33      -0.090601179111
 34      -0.002404436621
 35      -0.000000012242
 36       0.017146473478
 37      -0.110781997984
 38      -1.068408134848
 39       0.080176127379
 40       0.789760970238
 41      -0.110781998957
 42      -1.068408147161
 43       0.080176127953
 44       0.789761057946
 Sym=     1a
 Ene= -2.80460521975139E-02
 Spin= Alpha
 Occup= 0.000000
  1       0.044334782719
  2       0.019742955034
  3      -0.064299193765
  4      -0.000000047346
  5       0.231164904225
  6      -0.858605730801
  7       0.019302366077
  8      -0.000000117856
  9       1.500820606807
 10       0.022687612672
 11       0.032137577665
 12       0.087345668147
 13      -0.000000012684
 14       0.015906930159
 15      -0.985800139741
 16      -0.034693775832
 17      -0.000000024261
 18       0.847409092638
 19      -0.080889483084
 20       0.147601441191
 21      -0.020209959419
 22       0.000000013535
 23       0.260253685172
 24       1.354950980921
 25       0.014190748783
 26       0.000000025793
 27       0.690934167394
 28      -0.044136851295
 29       0.072729322409
 30       0.019903001878
 31       0.000000003901
 32       0.062048852725
 33       0.993440627018
 34      -0.023831659036
 35       0.000000007597
 36       0.323502684152
 37       0.015634377702
 38      -0.335808913517
 39       0.033039749927
 40       0.024114052718
 41       0.015634365336
 42      -0.335809195255
 43       0.033039749966
 44       0.024113991069
 Sym=     1a
 Ene= -2.54278973279916E-02
 Spin= Alpha
 Occup= 0.000000
  1       0.000000006057
  2      -0.000000008616
  3      -0.000000005038
  4       0.442360182561
  5       0.000000017806
  6      -0.000000093603
  7       0.000000001613
  8       1.042410044703
  9       0.000000136356
 10       0.000000001583
 11       0.000000002753
 12       0.000000006294
 13       0.326984401732
 14      -0.000000000356
 15      -0.000000060894
 16      -0.000000002329
 17       0.766572269956
 18       0.000000053055
 19      -0.000000007618
 20       0.000000013358
 21      -0.000000001231
 22      -0.124657691646
 23       0.000000026203
 24       0.000000127541
 25       0.000000000992
 26      -0.227408056242
 27       0.000000065905
 28      -0.000000002862
 29       0.000000006270
 30       0.000000001961
 31      -0.106685696068
 32       0.000000003898
 33       0.000000059231
 34      -0.000000001887
 35      -0.233055156949
 36       0.000000018207
 37      -0.055274829652
 38      -1.265479650260
 39      -0.014513036213
 40      -0.904228296683
 41       0.055274834179
 42       1.265479616597
 43       0.014513040090
 44       0.904228301005
 Sym=     1a
 Ene= -4.92886178065954E-03
 Spin= Alpha
 Occup= 0.000000
  1       0.000000000018
  2      -0.000000008524